
                                 *****************
                                 * O   R   C   A *
                                 *****************

                                            #,                                       
                                            ###                                      
                                            ####                                     
                                            #####                                    
                                            ######                                   
                                           ########,                                 
                                     ,,################,,,,,                         
                               ,,#################################,,                 
                          ,,##########################################,,             
                       ,#########################################, ''#####,          
                    ,#############################################,,   '####,        
                  ,##################################################,,,,####,       
                ,###########''''           ''''###############################       
              ,#####''   ,,,,##########,,,,          '''####'''          '####       
            ,##' ,,,,###########################,,,                        '##       
           ' ,,###''''                  '''############,,,                           
         ,,##''                                '''############,,,,        ,,,,,,###''
      ,#''                                            '''#######################'''  
     '                                                          ''''####''''         
             ,#######,   #######,   ,#######,      ##                                
            ,#'     '#,  ##    ##  ,#'     '#,    #''#        ######   ,####,        
            ##       ##  ##   ,#'  ##            #'  '#       #        #'  '#        
            ##       ##  #######   ##           ,######,      #####,   #    #        
            '#,     ,#'  ##    ##  '#,     ,#' ,#      #,         ##   #,  ,#        
             '#######'   ##     ##  '#######'  #'      '#     #####' # '####'        



                  #######################################################
                  #                        -***-                        #
                  #          Department of theory and spectroscopy      #
                  #    Directorship and core code : Frank Neese         #
                  #        Max Planck Institute fuer Kohlenforschung    #
                  #                Kaiser Wilhelm Platz 1               #
                  #                 D-45470 Muelheim/Ruhr               #
                  #                      Germany                        #
                  #                                                     #
                  #                  All rights reserved                #
                  #                        -***-                        #
                  #######################################################


                         Program Version 5.0.4 -  RELEASE  -


 With contributions from (in alphabetic order):
   Daniel Aravena         : Magnetic Suceptibility
   Michael Atanasov       : Ab Initio Ligand Field Theory (pilot matlab implementation)
   Alexander A. Auer      : GIAO ZORA, VPT2 properties, NMR spectrum
   Ute Becker             : Parallelization
   Giovanni Bistoni       : ED, misc. LED, open-shell LED, HFLD
   Martin Brehm           : Molecular dynamics
   Dmytro Bykov           : SCF Hessian
   Vijay G. Chilkuri      : MRCI spin determinant printing, contributions to CSF-ICE
   Dipayan Datta          : RHF DLPNO-CCSD density
   Achintya Kumar Dutta   : EOM-CC, STEOM-CC
   Dmitry Ganyushin       : Spin-Orbit,Spin-Spin,Magnetic field MRCI
   Miquel Garcia          : C-PCM and meta-GGA Hessian, CC/C-PCM, Gaussian charge scheme
   Yang Guo               : DLPNO-NEVPT2, F12-NEVPT2, CIM, IAO-localization
   Andreas Hansen         : Spin unrestricted coupled pair/coupled cluster methods
   Benjamin Helmich-Paris : MC-RPA, TRAH-SCF, COSX integrals
   Lee Huntington         : MR-EOM, pCC
   Robert Izsak           : Overlap fitted RIJCOSX, COSX-SCS-MP3, EOM
   Marcus Kettner         : VPT2
   Christian Kollmar      : KDIIS, OOCD, Brueckner-CCSD(T), CCSD density, CASPT2, CASPT2-K
   Simone Kossmann        : Meta GGA functionals, TD-DFT gradient, OOMP2, MP2 Hessian
   Martin Krupicka        : Initial AUTO-CI
   Lucas Lang             : DCDCAS
   Marvin Lechner         : AUTO-CI (C++ implementation), FIC-MRCC
   Dagmar Lenk            : GEPOL surface, SMD
   Dimitrios Liakos       : Extrapolation schemes; Compound Job, initial MDCI parallelization
   Dimitrios Manganas     : Further ROCIS development; embedding schemes
   Dimitrios Pantazis     : SARC Basis sets
   Anastasios Papadopoulos: AUTO-CI, single reference methods and gradients
   Taras Petrenko         : DFT Hessian,TD-DFT gradient, ASA, ECA, R-Raman, ABS, FL, XAS/XES, NRVS
   Peter Pinski           : DLPNO-MP2, DLPNO-MP2 Gradient
   Christoph Reimann      : Effective Core Potentials
   Marius Retegan         : Local ZFS, SOC
   Christoph Riplinger    : Optimizer, TS searches, QM/MM, DLPNO-CCSD(T), (RO)-DLPNO pert. Triples
   Tobias Risthaus        : Range-separated hybrids, TD-DFT gradient, RPA, STAB
   Michael Roemelt        : Original ROCIS implementation
   Masaaki Saitow         : Open-shell DLPNO-CCSD energy and density
   Barbara Sandhoefer     : DKH picture change effects
   Avijit Sen             : IP-ROCIS
   Kantharuban Sivalingam : CASSCF convergence, NEVPT2, FIC-MRCI
   Bernardo de Souza      : ESD, SOC TD-DFT
   Georgi Stoychev        : AutoAux, RI-MP2 NMR, DLPNO-MP2 response
   Willem Van den Heuvel  : Paramagnetic NMR
   Boris Wezisla          : Elementary symmetry handling
   Frank Wennmohs         : Technical directorship


 We gratefully acknowledge several colleagues who have allowed us to
 interface, adapt or use parts of their codes:
   Stefan Grimme, W. Hujo, H. Kruse, P. Pracht,  : VdW corrections, initial TS optimization,
                  C. Bannwarth, S. Ehlert          DFT functionals, gCP, sTDA/sTD-DF
   Ed Valeev, F. Pavosevic, A. Kumar             : LibInt (2-el integral package), F12 methods
   Garnet Chan, S. Sharma, J. Yang, R. Olivares  : DMRG
   Ulf Ekstrom                                   : XCFun DFT Library
   Mihaly Kallay                                 : mrcc  (arbitrary order and MRCC methods)
   Jiri Pittner, Ondrej Demel                    : Mk-CCSD
   Frank Weinhold                                : gennbo (NPA and NBO analysis)
   Christopher J. Cramer and Donald G. Truhlar   : smd solvation model
   Lars Goerigk                                  : TD-DFT with DH, B97 family of functionals
   V. Asgeirsson, H. Jonsson                     : NEB implementation
   FAccTs GmbH                                   : IRC, NEB, NEB-TS, DLPNO-Multilevel, CI-OPT
                                                   MM, QMMM, 2- and 3-layer-ONIOM, Crystal-QMMM,
                                                   LR-CPCM, SF, NACMEs, symmetry and pop. for TD-DFT,
                                                   nearIR, NL-DFT gradient (VV10), updates on ESD,
                                                   ML-optimized integration grids
   S Lehtola, MJT Oliveira, MAL Marques          : LibXC Library
   Liviu Ungur et al                             : ANISO software


 Your calculation uses the libint2 library for the computation of 2-el integrals
 For citations please refer to: http://libint.valeyev.net

 Your ORCA version has been built with support for libXC version: 5.1.0
 For citations please refer to: https://tddft.org/programs/libxc/

 This ORCA versions uses:
   CBLAS   interface :  Fast vector & matrix operations
   LAPACKE interface :  Fast linear algebra routines
   SCALAPACK package :  Parallel linear algebra routines
   Shared memory     :  Shared parallel matrices
   BLAS/LAPACK       :  OpenBLAS 0.3.15  USE64BITINT DYNAMIC_ARCH NO_AFFINITY SkylakeX SINGLE_THREADED
        Core in use  :  SkylakeX
   Copyright (c) 2011-2014, The OpenBLAS Project


Your calculation utilizes the atom-pairwise dispersion correction
based on tight binding partial charges (D4)
Cite in your paper:
E.Caldeweyher, C.Bannwarth, S.Grimme, J.Chem.Phys., (2017), 147, 034112.
E.Caldeweyher, S.Ehlert, A.Hansen, H.Neugebauer, S.Grimme, J.Chem.Phys., (2018), in progress.
   

XCFun DFT library Copyright 2009-2010 Ulf Ekstrom and contributors.
See http://admol.org/xcfun for more information.
This is free software; see the source code for copying conditions.
There is ABSOLUTELY NO WARRANTY; not even for MERCHANTABILITY or FITNESS FOR A PARTICULAR PURPOSE.
For details see the documentation.
Scientific users of this library should cite U. Ekstrom, L. Visscher, R. Bast, A. J. Thorvaldsen and K. Ruud;
J.Chem.Theor.Comp. 2010, DOI: 10.1021/ct100117s
XCFun Version 0.99 

================================================================================

----- Orbital basis set information -----
Your calculation utilizes the basis: def2-TZVP
   F. Weigend and R. Ahlrichs, Phys. Chem. Chem. Phys. 7, 3297 (2005).

----- AuxJ basis set information -----
Your calculation utilizes the auxiliary basis: def2/J
   F. Weigend, Phys. Chem. Chem. Phys. 8, 1057 (2006).

================================================================================
                                        WARNINGS
                       Please study these warnings very carefully!
================================================================================


WARNING: Geometry Optimization
  ===> : Switching off AutoStart
         For restart on a previous wavefunction, please use MOREAD

INFO   : the flag for use of the SHARK integral package has been found!

================================================================================
                                       INPUT FILE
================================================================================
NAME = BisTris_opt.inp
|  1> ! WB97X OPT FREQ def2-TZVP RIJCOSX D4
|  2> %MAXCORE 3500
|  3> %PAL NPROCS 8 END
|  4> * xyz 0 1
|  5>   N   -9.00032079843085     -1.20680291844005     -5.57848422035446
|  6>   C   -10.15724633512096     -0.24483861029780     -5.69207567940752
|  7>   C   -7.76435346742580     -0.70388694013354     -6.22177273693871
|  8>   C   -9.32603914265221     -2.59220284026586     -6.01258729199383
|  9>   H   -7.78616833681682      0.38252470507381     -6.22895892081836
| 10>   H   -7.70837954583034     -1.02736128199126     -7.26695768046377
| 11>   C   -6.47098470163752     -1.11753400078845     -5.53398335736223
| 12>   H   -10.36193488329083     -2.80120020465178     -5.76848796637292
| 13>   C   -8.48315011938401     -3.67594437092063     -5.36504269363779
| 14>   H   -9.24129911766241     -2.69372160509039     -7.09713915823411
| 15>   C   -10.57550170266338      0.06716212820291     -7.14032915027067
| 16>   H   -11.35104369266170      0.84284642807964     -7.11897496377320
| 17>   O   -11.04242378401787     -1.11355963311634     -7.73969350290152
| 18>   H   -9.71670422403391      0.48091296724666     -7.68213711795355
| 19>   C   -11.38506330520729     -0.80973675039237     -4.95898093451392
| 20>   O   -10.99455627269279     -1.32121413731506     -3.66611170833855
| 21>   H   -11.86185224173009     -1.59768815358568     -5.53878776249892
| 22>   H   -12.11105546920155     -0.00636758636535     -4.82355622132686
| 23>   C   -9.79311749041740      1.11620437893916     -5.06843238375396
| 24>   H   -10.71061916916214      1.69318049176349     -4.94484162643696
| 25>   H   -9.12682157707895      1.69249060510108     -5.71221665637426
| 26>   O   -9.16759132088415      0.93730013783740     -3.78605993541842
| 27>   H   -6.22716466023209     -2.16909079746633     -5.67647842429147
| 28>   O   -6.57351924396410     -0.85341841698578     -4.11454628335967
| 29>   H   -5.65749427913131     -0.52462473940733     -5.95378648645192
| 30>   H   -7.45878428634329     -3.70705826102046     -5.73355659669845
| 31>   H   -8.94779966665109     -4.63771874833720     -5.58614610262326
| 32>   O   -8.45785349178516     -3.47773453713281     -3.92882683247117
| 33>   H   -5.69092434812120     -0.74087762161648     -3.74899351480305
| 34>   H   -8.21509176242510     -4.30462047795247     -3.50085073722783
| 35>   H   -11.43441180934109     -0.92074899252860     -8.59583727491543
| 36>   H   -8.99109256151072      1.79925593574280     -3.39646191038653
| 37>   H   -11.77290421177882     -1.66488819021655     -3.21658608367023
| 38> *
| 39> 
| 40>                          ****END OF INPUT****
================================================================================

                       *****************************
                       * Geometry Optimization Run *
                       *****************************

Geometry optimization settings:
Update method            Update   .... BFGS
Choice of coordinates    CoordSys .... Z-matrix Internals
Initial Hessian          InHess   .... Almoef's Model

Convergence Tolerances:
Energy Change            TolE     ....  5.0000e-06 Eh
Max. Gradient            TolMAXG  ....  3.0000e-04 Eh/bohr
RMS Gradient             TolRMSG  ....  1.0000e-04 Eh/bohr
Max. Displacement        TolMAXD  ....  4.0000e-03 bohr
RMS Displacement         TolRMSD  ....  2.0000e-03 bohr
Strict Convergence                ....  False
------------------------------------------------------------------------------
                        ORCA OPTIMIZATION COORDINATE SETUP
------------------------------------------------------------------------------

The optimization will be done in new redundant internal coordinates
Making redundant internal coordinates   ...  (new redundants) done
Evaluating the initial hessian          ...  (Almloef) done
Evaluating the coordinates              ...  done
Calculating the B-matrix                .... done
Calculating the G-matrix                .... done
Diagonalizing the G-matrix              .... done
Small eigenvalue found = 1.288e-02
Small eigenvalue found = 1.376e-02
Small eigenvalue found = 1.987e-02
Small eigenvalue found = 2.400e-02
The first mode is                       ....   73
The number of degrees of freedom        ....   93

    -----------------------------------------------------------------
                    Redundant Internal Coordinates


    -----------------------------------------------------------------
         Definition                    Initial Value    Approx d2E/dq
    -----------------------------------------------------------------
      1. B(C   1,N   0)                  1.5089         0.361569   
      2. B(C   2,N   0)                  1.4813         0.400086   
      3. B(C   3,N   0)                  1.4879         0.390543   
      4. B(H   4,C   2)                  1.0867         0.364553   
      5. B(H   5,C   2)                  1.0955         0.352862   
      6. B(C   6,C   2)                  1.5222         0.384495   
      7. B(H   7,C   3)                  1.0846         0.367323   
      8. B(C   8,C   3)                  1.5180         0.390436   
      9. B(H   9,C   3)                  1.0926         0.356698   
     10. B(C  10,C   1)                  1.5394         0.360908   
     11. B(H  11,C  10)                  1.0971         0.350841   
     12. B(O  12,C  10)                  1.4041         0.531446   
     13. B(H  13,C  10)                  1.0965         0.351623   
     14. B(C  14,C   1)                  1.5376         0.363350   
     15. B(O  15,C  14)                  1.4442         0.458624   
     16. B(H  16,C  14)                  1.0883         0.362372   
     17. B(H  17,C  14)                  1.0912         0.358462   
     18. B(C  18,C   1)                  1.5408         0.359089   
     19. B(H  19,C  18)                  1.0909         0.358958   
     20. B(H  20,C  18)                  1.0911         0.358639   
     21. B(O  21,C  18)                  1.4380         0.469176   
     22. B(H  22,C   6)                  1.0888         0.361667   
     23. B(O  23,C   6)                  1.4474         0.453147   
     24. B(H  24,C   6)                  1.0907         0.359226   
     25. B(H  25,C   8)                  1.0891         0.361319   
     26. B(H  26,C   8)                  1.0908         0.359073   
     27. B(O  27,C   8)                  1.4500         0.448818   
     28. B(H  28,O  23)                  0.9619         0.516323   
     29. B(H  29,O  27)                  0.9622         0.515763   
     30. B(H  30,O  12)                  0.9612         0.517761   
     31. B(H  31,O  21)                  0.9622         0.515695   
     32. B(H  32,O  15)                  0.9623         0.515592   
     33. A(C   1,N   0,C   2)          112.9919         0.361056   
     34. A(C   2,N   0,C   3)          111.8430         0.365845   
     35. A(C   1,N   0,C   3)          113.8158         0.359574   
     36. A(C  10,C   1,C  14)          107.8220         0.359513   
     37. A(C  10,C   1,C  18)          105.4248         0.358792   
     38. A(N   0,C   1,C  14)          110.0084         0.357399   
     39. A(N   0,C   1,C  10)          114.1020         0.356989   
     40. A(C  14,C   1,C  18)          108.6798         0.359204   
     41. A(N   0,C   1,C  18)          110.5786         0.356683   
     42. A(H   4,C   2,H   5)          106.8531         0.290474   
     43. A(N   0,C   2,H   5)          110.8972         0.324945   
     44. A(H   5,C   2,C   6)          107.9047         0.324772   
     45. A(H   4,C   2,C   6)          106.9619         0.326518   
     46. A(N   0,C   2,H   4)          108.9987         0.326693   
     47. A(N   0,C   2,C   6)          114.8642         0.367157   
     48. A(N   0,C   3,C   8)          114.7549         0.366603   
     49. A(H   7,C   3,H   9)          106.2350         0.291314   
     50. A(N   0,C   3,H   9)          111.0477         0.324235   
     51. A(C   8,C   3,H   9)          108.3031         0.326172   
     52. A(H   7,C   3,C   8)          107.2630         0.327753   
     53. A(N   0,C   3,H   7)          108.8347         0.325803   
     54. A(O  23,C   6,H  24)          109.3357         0.332675   
     55. A(C   2,C   6,H  24)          108.1864         0.325728   
     56. A(H  22,C   6,H  24)          107.9161         0.290927   
     57. A(H  22,C   6,O  23)          108.6889         0.333049   
     58. A(C   2,C   6,H  22)          113.1780         0.326091   
     59. A(C   2,C   6,O  23)          109.4712         0.375110   
     60. A(C   3,C   8,H  26)          107.8483         0.326528   
     61. A(H  25,C   8,O  27)          108.8227         0.332466   
     62. A(C   3,C   8,O  27)          109.5489         0.375481   
     63. A(H  25,C   8,H  26)          107.8718         0.290863   
     64. A(C   3,C   8,H  25)          113.4737         0.326864   
     65. A(H  26,C   8,O  27)          109.1915         0.332122   
     66. A(O  12,C  10,H  13)          111.5216         0.340405   
     67. A(H  11,C  10,H  13)          107.2470         0.288574   
     68. A(C   1,C  10,H  13)          109.1809         0.321233   
     69. A(H  11,C  10,O  12)          111.5800         0.340279   
     70. A(C   1,C  10,O  12)          108.7552         0.381399   
     71. A(C   1,C  10,H  11)          108.4851         0.321116   
     72. A(C  10,O  12,H  30)          110.3146         0.360219   
     73. A(H  16,C  14,H  17)          107.9192         0.290918   
     74. A(O  15,C  14,H  17)          109.2405         0.333221   
     75. A(C   1,C  14,H  17)          108.6605         0.322604   
     76. A(O  15,C  14,H  16)          109.8155         0.333821   
     77. A(C   1,C  14,H  16)          111.2133         0.323178   
     78. A(C   1,C  14,O  15)          109.9398         0.372239   
     79. A(C  14,O  15,H  32)          109.0245         0.351073   
     80. A(H  20,C  18,O  21)          109.0415         0.334509   
     81. A(H  19,C  18,O  21)          109.3077         0.334558   
     82. A(C   1,C  18,O  21)          110.7240         0.372942   
     83. A(H  19,C  18,H  20)          107.5240         0.290509   
     84. A(C   1,C  18,H  20)          111.8424         0.322007   
     85. A(C   1,C  18,H  19)          108.3190         0.322054   
     86. A(C  18,O  21,H  31)          109.2334         0.352437   
     87. A(C   6,O  23,H  28)          109.2098         0.350445   
     88. A(C   8,O  27,H  29)          109.1157         0.349813   
     89. D(C  14,C   1,N   0,C   3)     53.1153         0.011243   
     90. D(C  10,C   1,N   0,C   2)     60.7828         0.011243   
     91. D(C  18,C   1,N   0,C   3)    173.1681         0.011243   
     92. D(C  14,C   1,N   0,C   2)   -177.9030         0.011243   
     93. D(C  10,C   1,N   0,C   3)    -68.1989         0.011243   
     94. D(C  18,C   1,N   0,C   2)    -57.8502         0.011243   
     95. D(C   6,C   2,N   0,C   1)    146.2567         0.013666   
     96. D(C   6,C   2,N   0,C   3)    -83.7535         0.013666   
     97. D(H   5,C   2,N   0,C   1)    -91.0841         0.013666   
     98. D(H   5,C   2,N   0,C   3)     38.9057         0.013666   
     99. D(H   4,C   2,N   0,C   3)    156.2714         0.013666   
    100. D(H   4,C   2,N   0,C   1)     26.2816         0.013666   
    101. D(C   8,C   3,N   0,C   1)   -153.5675         0.013037   
    102. D(H   7,C   3,N   0,C   2)   -162.9592         0.013037   
    103. D(H   7,C   3,N   0,C   1)    -33.3978         0.013037   
    104. D(H   9,C   3,N   0,C   2)    -46.3581         0.013037   
    105. D(H   9,C   3,N   0,C   1)     83.2033         0.013037   
    106. D(C   8,C   3,N   0,C   2)     76.8711         0.013037   
    107. D(H  24,C   6,C   2,H   4)    -46.7942         0.011769   
    108. D(H  24,C   6,C   2,N   0)   -167.8900         0.011769   
    109. D(O  23,C   6,C   2,H   5)   -173.0793         0.011769   
    110. D(O  23,C   6,C   2,H   4)     72.2709         0.011769   
    111. D(O  23,C   6,C   2,N   0)    -48.8250         0.011769   
    112. D(H  22,C   6,C   2,H   4)   -166.3244         0.011769   
    113. D(H  22,C   6,C   2,H   5)    -51.6745         0.011769   
    114. D(H  24,C   6,C   2,H   5)     67.8557         0.011769   
    115. D(H  22,C   6,C   2,N   0)     72.5797         0.011769   
    116. D(H  26,C   8,C   3,N   0)    167.8489         0.012118   
    117. D(H  25,C   8,C   3,H   9)     51.9633         0.012118   
    118. D(H  25,C   8,C   3,H   7)    166.2409         0.012118   
    119. D(H  25,C   8,C   3,N   0)    -72.7234         0.012118   
    120. D(O  27,C   8,C   3,H   9)    173.7976         0.012118   
    121. D(O  27,C   8,C   3,H   7)    -71.9248         0.012118   
    122. D(O  27,C   8,C   3,N   0)     49.1109         0.012118   
    123. D(H  26,C   8,C   3,H   9)    -67.4645         0.012118   
    124. D(H  26,C   8,C   3,H   7)     46.8132         0.012118   
    125. D(H  13,C  10,C   1,C  18)     63.5309         0.010446   
    126. D(H  13,C  10,C   1,C  14)    179.4879         0.010446   
    127. D(H  13,C  10,C   1,N   0)    -57.9949         0.010446   
    128. D(O  12,C  10,C   1,C  18)   -174.5775         0.010446   
    129. D(O  12,C  10,C   1,C  14)    -58.6205         0.010446   
    130. D(O  12,C  10,C   1,N   0)     63.8968         0.010446   
    131. D(H  11,C  10,C   1,C  18)    -53.0390         0.010446   
    132. D(H  11,C  10,C   1,C  14)     62.9180         0.010446   
    133. D(H  11,C  10,C   1,N   0)   -174.5648         0.010446   
    134. D(H  30,O  12,C  10,H  13)    -68.2147         0.022434   
    135. D(H  30,O  12,C  10,H  11)     51.7001         0.022434   
    136. D(H  30,O  12,C  10,C   1)    171.3289         0.022434   
    137. D(H  17,C  14,C   1,C  18)     43.9834         0.010579   
    138. D(H  17,C  14,C   1,C  10)    -69.8204         0.010579   
    139. D(H  17,C  14,C   1,N   0)    165.1803         0.010579   
    140. D(H  16,C  14,C   1,C  18)    162.6318         0.010579   
    141. D(H  16,C  14,C   1,C  10)     48.8279         0.010579   
    142. D(H  16,C  14,C   1,N   0)    -76.1714         0.010579   
    143. D(O  15,C  14,C   1,C  18)    -75.5226         0.010579   
    144. D(O  15,C  14,C   1,C  10)    170.6735         0.010579   
    145. D(O  15,C  14,C   1,N   0)     45.6742         0.010579   
    146. D(H  32,O  15,C  14,H  17)     60.4218         0.016569   
    147. D(H  32,O  15,C  14,H  16)    -57.7523         0.016569   
    148. D(H  32,O  15,C  14,C   1)    179.5735         0.016569   
    149. D(H  19,C  18,C   1,C  14)    -45.3509         0.010349   
    150. D(H  19,C  18,C   1,C  10)     70.0174         0.010349   
    151. D(H  19,C  18,C   1,N   0)   -166.1971         0.010349   
    152. D(O  21,C  18,C   1,C  14)     74.4939         0.010349   
    153. D(O  21,C  18,C   1,C  10)   -170.1378         0.010349   
    154. D(O  21,C  18,C   1,N   0)    -46.3523         0.010349   
    155. D(H  20,C  18,C   1,C  14)   -163.6724         0.010349   
    156. D(H  20,C  18,C   1,C  10)    -48.3042         0.010349   
    157. D(H  20,C  18,C   1,N   0)     75.4813         0.010349   
    158. D(H  31,O  21,C  18,H  20)     59.4462         0.017350   
    159. D(H  31,O  21,C  18,H  19)    -57.8400         0.017350   
    160. D(H  31,O  21,C  18,C   1)   -177.0906         0.017350   
    161. D(H  28,O  23,C   6,H  24)    -37.1058         0.016173   
    162. D(H  28,O  23,C   6,H  22)     80.4656         0.016173   
    163. D(H  28,O  23,C   6,C   2)   -155.4580         0.016173   
    164. D(H  29,O  27,C   8,H  26)     41.5563         0.015864   
    165. D(H  29,O  27,C   8,H  25)    -75.9569         0.015864   
    166. D(H  29,O  27,C   8,C   3)    159.4594         0.015864   
    -----------------------------------------------------------------

Number of atoms                         .... 33
Number of degrees of freedom            .... 166

         *************************************************************
         *                GEOMETRY OPTIMIZATION CYCLE   1            *
         *************************************************************
---------------------------------
CARTESIAN COORDINATES (ANGSTROEM)
---------------------------------
  N     -9.000321   -1.206803   -5.578484
  C    -10.157246   -0.244839   -5.692076
  C     -7.764353   -0.703887   -6.221773
  C     -9.326039   -2.592203   -6.012587
  H     -7.786168    0.382525   -6.228959
  H     -7.708380   -1.027361   -7.266958
  C     -6.470985   -1.117534   -5.533983
  H    -10.361935   -2.801200   -5.768488
  C     -8.483150   -3.675944   -5.365043
  H     -9.241299   -2.693722   -7.097139
  C    -10.575502    0.067162   -7.140329
  H    -11.351044    0.842846   -7.118975
  O    -11.042424   -1.113560   -7.739694
  H     -9.716704    0.480913   -7.682137
  C    -11.385063   -0.809737   -4.958981
  O    -10.994556   -1.321214   -3.666112
  H    -11.861852   -1.597688   -5.538788
  H    -12.111055   -0.006368   -4.823556
  C     -9.793117    1.116204   -5.068432
  H    -10.710619    1.693180   -4.944842
  H     -9.126822    1.692491   -5.712217
  O     -9.167591    0.937300   -3.786060
  H     -6.227165   -2.169091   -5.676478
  O     -6.573519   -0.853418   -4.114546
  H     -5.657494   -0.524625   -5.953786
  H     -7.458784   -3.707058   -5.733557
  H     -8.947800   -4.637719   -5.586146
  O     -8.457853   -3.477735   -3.928827
  H     -5.690924   -0.740878   -3.748994
  H     -8.215092   -4.304620   -3.500851
  H    -11.434412   -0.920749   -8.595837
  H     -8.991093    1.799256   -3.396462
  H    -11.772904   -1.664888   -3.216586

----------------------------
CARTESIAN COORDINATES (A.U.)
----------------------------
  NO LB      ZA    FRAG     MASS         X           Y           Z
   0 N     7.0000    0    14.007  -17.008141   -2.280527  -10.541807
   1 C     6.0000    0    12.011  -19.194414   -0.462678  -10.756464
   2 C     6.0000    0    12.011  -14.672502   -1.330154  -11.757447
   3 C     6.0000    0    12.011  -17.623660   -4.898553  -11.362143
   4 H     1.0000    0     1.008  -14.713726    0.722867  -11.771026
   5 H     1.0000    0     1.008  -14.566726   -1.941431  -13.732560
   6 C     6.0000    0    12.011  -12.228389   -2.111833  -10.457713
   7 H     1.0000    0     1.008  -19.581219   -5.293501  -10.900862
   8 C     6.0000    0    12.011  -16.030830   -6.946528  -10.138461
   9 H     1.0000    0     1.008  -17.463524   -5.090396  -13.411649
  10 C     6.0000    0    12.011  -19.984802    0.126918  -13.493267
  11 H     1.0000    0     1.008  -21.450364    1.592749  -13.452913
  12 O     8.0000    0    15.999  -20.867157   -2.104323  -14.625901
  13 H     1.0000    0     1.008  -18.361910    0.908794  -14.517135
  14 C     6.0000    0    12.011  -21.514652   -1.530181   -9.371116
  15 O     8.0000    0    15.999  -20.776700   -2.496733   -6.927947
  16 H     1.0000    0     1.008  -22.415652   -3.019193  -10.466792
  17 H     1.0000    0     1.008  -22.886578   -0.012033   -9.115200
  18 C     6.0000    0    12.011  -18.506310    2.109321   -9.577949
  19 H     1.0000    0     1.008  -20.240137    3.199647   -9.344396
  20 H     1.0000    0     1.008  -17.247193    3.198344  -10.794525
  21 O     8.0000    0    15.999  -17.324237    1.771241   -7.154616
  22 H     1.0000    0     1.008  -11.767636   -4.098988  -10.726990
  23 O     8.0000    0    15.999  -12.422151   -1.612727   -7.775366
  24 H     1.0000    0     1.008  -10.691115   -0.991397  -11.251026
  25 H     1.0000    0     1.008  -14.095060   -7.005325  -10.834852
  26 H     1.0000    0     1.008  -16.908891   -8.764018  -10.556286
  27 O     8.0000    0    15.999  -15.983027   -6.571966   -7.424407
  28 H     1.0000    0     1.008  -10.754288   -1.400056   -7.084571
  29 H     1.0000    0     1.008  -15.524274   -8.134554   -6.615649
  30 H     1.0000    0     1.008  -21.607907   -1.739963  -16.243778
  31 H     1.0000    0     1.008  -16.990703    3.400101   -6.418383
  32 H     1.0000    0     1.008  -22.247565   -3.146183   -6.078467

--------------------------------
INTERNAL COORDINATES (ANGSTROEM)
--------------------------------
 N      0   0   0     0.000000000000     0.00000000     0.00000000
 C      1   0   0     1.508891993204     0.00000000     0.00000000
 C      1   2   0     1.481337179752   112.99190549     0.00000000
 C      1   2   3     1.487908216243   113.81579837   231.01829367
 H      3   1   2     1.086654403482   108.99874002    26.28162012
 H      3   1   2     1.095527405367   110.89721649   268.91592602
 C      3   1   2     1.522156656118   114.86419696   146.25674958
 H      4   1   2     1.084594101294   108.83473754   326.60220227
 C      4   1   2     1.517982746171   114.75494650   206.43251313
 H      4   1   2     1.092583947352   111.04772253    83.20332646
 C      2   1   3     1.539389531331   114.10200873    60.78276752
 H     11   2   1     1.097090476035   108.48506688   185.43522541
 O     11   2   1     1.404050474489   108.75518143    63.89676191
 H     11   2   1     1.096484719435   109.18093446   302.00513490
 C      2   1   3     1.537554007411   110.00840822   182.09696281
 O     15   2   1     1.444166090091   109.93979498    45.67424422
 H     15   2   1     1.088288133521   111.21327559   283.82864001
 H     15   2   1     1.091240802404   108.66053030   165.18030500
 C      2   1   3     1.540765651976   110.57855907   302.14979346
 H     19   2   1     1.090864538136   108.31899397   193.80285075
 H     19   2   1     1.091106891312   111.84239546    75.48129168
 O     19   2   1     1.437973856684   110.72396149   313.64766108
 H      7   3   1     1.088818053363   113.17802642    72.57973927
 O      7   3   1     1.447436347834   109.47121635   311.17502036
 H      7   3   1     1.090661600559   108.18643286   192.10999853
 H      9   4   1     1.089080314213   113.47365942   287.27660964
 H      9   4   1     1.090777645671   107.84826452   167.84887774
 O      9   4   1     1.450049329314   109.54885406    49.11090547
 H     24   7   3     0.961908523400   109.20980425   204.54195384
 H     28   9   4     0.962204320541   109.11570899   159.45935432
 H     13  11   2     0.961151764020   110.31460441   171.32888082
 H     22  19   2     0.962240214662   109.23340813   182.90943749
 H     16  15   2     0.962294474758   109.02453769   179.57345119

---------------------------
INTERNAL COORDINATES (A.U.)
---------------------------
 N      0   0   0     0.000000000000     0.00000000     0.00000000
 C      1   0   0     2.851392632822     0.00000000     0.00000000
 C      1   2   0     2.799321581727   112.99190549     0.00000000
 C      1   2   3     2.811739041111   113.81579837   231.01829367
 H      3   1   2     2.053479224801   108.99874002    26.28162012
 H      3   1   2     2.070246768349   110.89721649   268.91592602
 C      3   1   2     2.876459212988   114.86419696   146.25674958
 H      4   1   2     2.049585817912   108.83473754   326.60220227
 C      4   1   2     2.868571666280   114.75494650   206.43251313
 H      4   1   2     2.064684438815   111.04772253    83.20332646
 C      2   1   3     2.909024627640   114.10200873    60.78276752
 H     11   2   1     2.073200543840   108.48506688   185.43522541
 O     11   2   1     2.653270874987   108.75518143    63.89676191
 H     11   2   1     2.072055829762   109.18093446   302.00513490
 C      2   1   3     2.905555990119   110.00840822   182.09696281
 O     15   2   1     2.729078402167   109.93979498    45.67424422
 H     15   2   1     2.056566527151   111.21327559   283.82864001
 H     15   2   1     2.062146262705   108.66053030   165.18030500
 C      2   1   3     2.911625118788   110.57855907   302.14979346
 H     19   2   1     2.061435226284   108.31899397   193.80285075
 H     19   2   1     2.061893207414   111.84239546    75.48129168
 O     19   2   1     2.717376776870   110.72396149   313.64766108
 H      7   3   1     2.057567930526   113.17802642    72.57973927
 O      7   3   1     2.735258293689   109.47121635   311.17502036
 H      7   3   1     2.061051729841   108.18643286   192.10999853
 H      9   4   1     2.058063531708   113.47365942   287.27660964
 H      9   4   1     2.061271023322   107.84826452   167.84887774
 O      9   4   1     2.740196113080   109.54885406    49.11090547
 H     24   7   3     1.817743675111   109.20980425   204.54195384
 H     28   9   4     1.818302650697   109.11570899   159.45935432
 H     13  11   2     1.816313607133   110.31460441   171.32888082
 H     22  19   2     1.818370480756   109.23340813   182.90943749
 H     16  15   2     1.818473017479   109.02453769   179.57345119

---------------------
BASIS SET INFORMATION
---------------------
There are 4 groups of distinct atoms

 Group   1 Type N   : 11s6p2d1f contracted to 5s3p2d1f pattern {62111/411/11/1}
 Group   2 Type C   : 11s6p2d1f contracted to 5s3p2d1f pattern {62111/411/11/1}
 Group   3 Type H   : 5s1p contracted to 3s1p pattern {311/1}
 Group   4 Type O   : 11s6p2d1f contracted to 5s3p2d1f pattern {62111/411/11/1}

Atom   0N    basis set group =>   1
Atom   1C    basis set group =>   2
Atom   2C    basis set group =>   2
Atom   3C    basis set group =>   2
Atom   4H    basis set group =>   3
Atom   5H    basis set group =>   3
Atom   6C    basis set group =>   2
Atom   7H    basis set group =>   3
Atom   8C    basis set group =>   2
Atom   9H    basis set group =>   3
Atom  10C    basis set group =>   2
Atom  11H    basis set group =>   3
Atom  12O    basis set group =>   4
Atom  13H    basis set group =>   3
Atom  14C    basis set group =>   2
Atom  15O    basis set group =>   4
Atom  16H    basis set group =>   3
Atom  17H    basis set group =>   3
Atom  18C    basis set group =>   2
Atom  19H    basis set group =>   3
Atom  20H    basis set group =>   3
Atom  21O    basis set group =>   4
Atom  22H    basis set group =>   3
Atom  23O    basis set group =>   4
Atom  24H    basis set group =>   3
Atom  25H    basis set group =>   3
Atom  26H    basis set group =>   3
Atom  27O    basis set group =>   4
Atom  28H    basis set group =>   3
Atom  29H    basis set group =>   3
Atom  30H    basis set group =>   3
Atom  31H    basis set group =>   3
Atom  32H    basis set group =>   3
---------------------------------
AUXILIARY/J BASIS SET INFORMATION
---------------------------------
There are 4 groups of distinct atoms

 Group   1 Type N   : 12s5p4d2f1g contracted to 6s4p3d1f1g pattern {711111/2111/211/2/1}
 Group   2 Type C   : 12s5p4d2f1g contracted to 6s4p3d1f1g pattern {711111/2111/211/2/1}
 Group   3 Type H   : 5s2p1d contracted to 3s1p1d pattern {311/2/1}
 Group   4 Type O   : 12s5p4d2f1g contracted to 6s4p3d1f1g pattern {711111/2111/211/2/1}

Atom   0N    basis set group =>   1
Atom   1C    basis set group =>   2
Atom   2C    basis set group =>   2
Atom   3C    basis set group =>   2
Atom   4H    basis set group =>   3
Atom   5H    basis set group =>   3
Atom   6C    basis set group =>   2
Atom   7H    basis set group =>   3
Atom   8C    basis set group =>   2
Atom   9H    basis set group =>   3
Atom  10C    basis set group =>   2
Atom  11H    basis set group =>   3
Atom  12O    basis set group =>   4
Atom  13H    basis set group =>   3
Atom  14C    basis set group =>   2
Atom  15O    basis set group =>   4
Atom  16H    basis set group =>   3
Atom  17H    basis set group =>   3
Atom  18C    basis set group =>   2
Atom  19H    basis set group =>   3
Atom  20H    basis set group =>   3
Atom  21O    basis set group =>   4
Atom  22H    basis set group =>   3
Atom  23O    basis set group =>   4
Atom  24H    basis set group =>   3
Atom  25H    basis set group =>   3
Atom  26H    basis set group =>   3
Atom  27O    basis set group =>   4
Atom  28H    basis set group =>   3
Atom  29H    basis set group =>   3
Atom  30H    basis set group =>   3
Atom  31H    basis set group =>   3
Atom  32H    basis set group =>   3


           ************************************************************
           *        Program running with 8 parallel MPI-processes     *
           *              working on a common directory               *
           ************************************************************
------------------------------------------------------------------------------
                           ORCA GTO INTEGRAL CALCULATION
                           -- RI-GTO INTEGRALS CHOSEN --
------------------------------------------------------------------------------
------------------------------------------------------------------------------
                   ___                                                        
                  /   \      - P O W E R E D   B Y -                         
                 /     \                                                     
                 |  |  |   _    _      __       _____    __    __             
                 |  |  |  | |  | |    /  \     |  _  \  |  |  /  |          
                  \  \/   | |  | |   /    \    | | | |  |  | /  /          
                 / \  \   | |__| |  /  /\  \   | |_| |  |  |/  /          
                |  |  |   |  __  | /  /__\  \  |    /   |      \           
                |  |  |   | |  | | |   __   |  |    \   |  |\   \          
                \     /   | |  | | |  |  |  |  | |\  \  |  | \   \       
                 \___/    |_|  |_| |__|  |__|  |_| \__\ |__|  \__/        
                                                                              
                      - O R C A' S   B I G   F R I E N D -                    
                                      &                                       
                       - I N T E G R A L  F E E D E R -                       
                                                                              
 v1 FN, 2020, v2 2021                                                         
------------------------------------------------------------------------------


Reading SHARK input file BisTris_opt.SHARKINP.tmp ... ok
----------------------
SHARK INTEGRAL PACKAGE
----------------------

Number of atoms                             ...     33
Number of basis functions                   ...    548
Number of shells                            ...    230
Maximum angular momentum                    ...      3
Integral batch strategy                     ... SHARK/LIBINT Hybrid
RI-J (if used) integral strategy            ... SPLIT-RIJ (Revised 2003 algorithm where possible)
Printlevel                                  ...      1
Contraction scheme used                     ... SEGMENTED contraction
Coulomb Range Separation                    ... NOT USED
Exchange Range Separation                   ... Long Range
   Mu parameter                             ...  0.300000
   Scaling (regular/separated)              ...  0.157706  0.842294
Finite Nucleus Model                        ... NOT USED
Auxiliary Coulomb fitting basis             ... AVAILABLE
   # of basis functions in Aux-J            ...    895
   # of shells in Aux-J                     ...    305
   Maximum angular momentum in Aux-J        ...      4
Auxiliary J/K fitting basis                 ... NOT available
Auxiliary Correlation fitting basis         ... NOT available
Auxiliary 'external' fitting basis          ... NOT available
Integral threshold                          ...     2.500000e-11
Primitive cut-off                           ...     2.500000e-12
Primitive pair pre-selection threshold      ...     2.500000e-12

Calculating pre-screening integrals         ... done (  0.1 sec) Dimension = 230
Organizing shell pair data                  ... done (  0.2 sec)
Shell pair information
Total number of shell pairs                 ...     26565
Shell pairs after pre-screening             ...     22286
Total number of primitive shell pairs       ...     78180
Primitive shell pairs kept                  ...     45820
          la=0 lb=0:   6660 shell pairs
          la=1 lb=0:   6544 shell pairs
          la=1 lb=1:   1674 shell pairs
          la=2 lb=0:   2961 shell pairs
          la=2 lb=1:   1491 shell pairs
          la=2 lb=2:    351 shell pairs
          la=3 lb=0:   1431 shell pairs
          la=3 lb=1:    739 shell pairs
          la=3 lb=2:    343 shell pairs
          la=3 lb=3:     92 shell pairs

Calculating one electron integrals          ... done (  0.0 sec)
Calculating RI/J V-Matrix + Cholesky decomp.... done (  0.0 sec)
Calculating Nuclear repulsion               ... done (  0.0 sec) ENN=   1099.543670316312 Eh

SHARK setup successfully completed in   0.6 seconds

Maximum memory used throughout the entire GTOINT-calculation: 33.9 MB


           ************************************************************
           *        Program running with 8 parallel MPI-processes     *
           *              working on a common directory               *
           ************************************************************
-------------------------------------------------------------------------------
                                 ORCA SCF
-------------------------------------------------------------------------------

------------
SCF SETTINGS
------------
Hamiltonian:
 Density Functional     Method          .... DFT(GTOs)
 Exchange Functional    Exchange        .... WB97X
 Correlation Functional Correlation     .... WB97X
 Gradients option       PostSCFGGA      .... off
 Hybrid DFT is turned on
   Fraction HF Exchange ScalHFX         ....  0.157706
   Scaling of DF-GGA-X  ScalDFX         ....  0.000000
   Scaling of DF-GGA-C  ScalDFC         ....  1.000000
   Scaling of DF-LDA-C  ScalLDAC        ....  1.000000
   Perturbative correction              ....  0.000000
   Density functional embedding theory  .... OFF
 Long-range corrected/Screened/Range-Separated Hybrid DFT is turned on
   Amount of maximum screened exact exchange              ....  0.842294
   Range separation parameter mu (erf(mu*r12)/r12)        ....  0.300000
 RI-approximation to the Coulomb term is turned on
   Number of AuxJ basis functions       .... 895
   RIJ-COSX (HFX calculated with COS-X)).... on


General Settings:
 Integral files         IntName         .... BisTris_opt
 Hartree-Fock type      HFTyp           .... RHF
 Total Charge           Charge          ....    0
 Multiplicity           Mult            ....    1
 Number of Electrons    NEL             ....  114
 Basis Dimension        Dim             ....  548
 Nuclear Repulsion      ENuc            ....   1099.5436703163 Eh

Convergence Acceleration:
 DIIS                   CNVDIIS         .... on
   Start iteration      DIISMaxIt       ....    12
   Startup error        DIISStart       ....  0.200000
   # of expansion vecs  DIISMaxEq       ....     5
   Bias factor          DIISBfac        ....   1.050
   Max. coefficient     DIISMaxC        ....  10.000
 Trust-Rad. Augm. Hess. CNVTRAH         .... auto
   Auto Start mean grad. ratio tolernc. ....  1.125000
   Auto Start start iteration           ....    20
   Auto Start num. interpolation iter.  ....    10
   Max. Number of Micro iterations      ....    16
   Max. Number of Macro iterations      .... Maxiter - #DIIS iter
   Number of Davidson start vectors     ....     2
   Converg. threshold I  (grad. norm)   ....   1.000e-05
   Converg. threshold II (energy diff.) ....   1.000e-08
   Grad. Scal. Fac. for Micro threshold ....   0.100
   Minimum threshold for Micro iter.    ....   0.010
   NR start threshold (gradient norm)   ....   0.001
   Initial trust radius                 ....   0.400
   Minimum AH scaling param. (alpha)    ....   1.000
   Maximum AH scaling param. (alpha)    .... 1000.000
   Orbital update algorithm             .... Taylor
   White noise on init. David. guess    .... on
   Maximum white noise                  ....   0.010
   Quad. conv. algorithm                .... NR
 SOSCF                  CNVSOSCF        .... on
   Start iteration      SOSCFMaxIt      ....   150
   Startup grad/error   SOSCFStart      ....  0.003300
 Level Shifting         CNVShift        .... on
   Level shift para.    LevelShift      ....    0.2500
   Turn off err/grad.   ShiftErr        ....    0.0010
 Zerner damping         CNVZerner       .... off
 Static damping         CNVDamp         .... on
   Fraction old density DampFac         ....    0.7000
   Max. Damping (<1)    DampMax         ....    0.9800
   Min. Damping (>=0)   DampMin         ....    0.0000
   Turn off err/grad.   DampErr         ....    0.1000
 Fernandez-Rico         CNVRico         .... off

SCF Procedure:
 Maximum # iterations   MaxIter         ....   125
 SCF integral mode      SCFMode         .... Direct
   Integral package                     .... SHARK and LIBINT hybrid scheme
 Reset frequency        DirectResetFreq ....    20
 Integral Threshold     Thresh          ....  2.500e-11 Eh
 Primitive CutOff       TCut            ....  2.500e-12 Eh

Convergence Tolerance:
 Convergence Check Mode ConvCheckMode   .... Total+1el-Energy
 Convergence forced     ConvForced      .... 0
 Energy Change          TolE            ....  1.000e-08 Eh
 1-El. energy change                    ....  1.000e-05 Eh
 Orbital Gradient       TolG            ....  1.000e-05
 Orbital Rotation angle TolX            ....  1.000e-05
 DIIS Error             TolErr          ....  5.000e-07


Diagonalization of the overlap matrix:
Smallest eigenvalue                        ... 8.783e-05
Time for diagonalization                   ...    0.050 sec
Threshold for overlap eigenvalues          ... 1.000e-08
Number of eigenvalues below threshold      ... 0
Time for construction of square roots      ...    0.026 sec
Total time needed                          ...    0.079 sec

Time for model grid setup =    0.179 sec

------------------------------
INITIAL GUESS: MODEL POTENTIAL
------------------------------
Loading Hartree-Fock densities                     ... done
Calculating cut-offs                               ... done
Initializing the effective Hamiltonian             ... done
Setting up the integral package (SHARK)            ... done
Starting the Coulomb interaction                   ... done (   0.3 sec)
Reading the grid                                   ... done
Mapping shells                                     ... done
Starting the XC term evaluation                    ... done (   0.2 sec)
  promolecular density results
     # of electrons  =    113.994141997
     EX              =    -93.859702642
     EC              =     -3.829653063
     EX+EC           =    -97.689355705
Transforming the Hamiltonian                       ... done (   0.0 sec)
Diagonalizing the Hamiltonian                      ... done (   0.1 sec)
Back transforming the eigenvectors                 ... done (   0.0 sec)
Now organizing SCF variables                       ... done
                      ------------------
                      INITIAL GUESS DONE (   0.8 sec)
                      ------------------
-------------------
DFT GRID GENERATION
-------------------

General Integration Accuracy     IntAcc      ... 4.388
Radial Grid Type                 RadialGrid  ... OptM3 with GC (2021)
Angular Grid (max. ang.)         AngularGrid ... 4 (Lebedev-302)
Angular grid pruning method      GridPruning ... 4 (adaptive)
Weight generation scheme         WeightScheme... Becke
Basis function cutoff            BFCut       ... 1.0000e-11
Integration weight cutoff        WCut        ... 1.0000e-14
Angular grids for H and He will be reduced by one unit
Partially contracted basis set               ... off
Rotationally invariant grid construction     ... off

Total number of grid points                  ...   144027
Total number of batches                      ...     2267
Average number of points per batch           ...       63
Average number of grid points per atom       ...     4364
Time for grid setup =    0.836 sec

--------------------
COSX GRID GENERATION
--------------------

GRIDX 1
-------
General Integration Accuracy     IntAcc      ... 3.816
Radial Grid Type                 RadialGrid  ... OptM3 with GC (2021)
Angular Grid (max. ang.)         AngularGrid ... 1 (Lebedev-50)
Angular grid pruning method      GridPruning ... 4 (adaptive)
Weight generation scheme         WeightScheme... Becke
Basis function cutoff            BFCut       ... 1.0000e-11
Integration weight cutoff        WCut        ... 1.0000e-14
Angular grids for H and He will be reduced by one unit
Partially contracted basis set               ... on
Rotationally invariant grid construction     ... off

Total number of grid points                  ...    18341
Total number of batches                      ...      308
Average number of points per batch           ...       59
Average number of grid points per atom       ...      556
UseSFitting                                  ... on

GRIDX 2
-------
General Integration Accuracy     IntAcc      ... 4.020
Radial Grid Type                 RadialGrid  ... OptM3 with GC (2021)
Angular Grid (max. ang.)         AngularGrid ... 2 (Lebedev-110)
Angular grid pruning method      GridPruning ... 4 (adaptive)
Weight generation scheme         WeightScheme... Becke
Basis function cutoff            BFCut       ... 1.0000e-11
Integration weight cutoff        WCut        ... 1.0000e-14
Angular grids for H and He will be reduced by one unit
Partially contracted basis set               ... on
Rotationally invariant grid construction     ... off

Total number of grid points                  ...    38499
Total number of batches                      ...      617
Average number of points per batch           ...       62
Average number of grid points per atom       ...     1167
UseSFitting                                  ... on

GRIDX 3
-------
General Integration Accuracy     IntAcc      ... 4.338
Radial Grid Type                 RadialGrid  ... OptM3 with GC (2021)
Angular Grid (max. ang.)         AngularGrid ... 3 (Lebedev-194)
Angular grid pruning method      GridPruning ... 4 (adaptive)
Weight generation scheme         WeightScheme... Becke
Basis function cutoff            BFCut       ... 1.0000e-11
Integration weight cutoff        WCut        ... 1.0000e-14
Angular grids for H and He will be reduced by one unit
Partially contracted basis set               ... on
Rotationally invariant grid construction     ... off

Total number of grid points                  ...    83858
Total number of batches                      ...     1326
Average number of points per batch           ...       63
Average number of grid points per atom       ...     2541
UseSFitting                                  ... on

Time for X-Grid setup             =    1.178 sec

--------------
SCF ITERATIONS
--------------
ITER       Energy         Delta-E        Max-DP      RMS-DP      [F,P]     Damp
               ***  Starting incremental Fock matrix formation  ***
  0   -746.6887773598   0.000000000000 0.15065533  0.00130216  0.2589752 0.7000
  1   -746.8999295177  -0.211152157863 0.11643189  0.00100041  0.1263205 0.7000
                               ***Turning on DIIS***
  2   -746.9937846064  -0.093855088737 0.13899281  0.00155785  0.0478897 0.0000
  3   -747.1500465194  -0.156261912958 0.11219183  0.00081146  0.0627961 0.0000
  4   -747.1760770275  -0.026030508097 0.01640329  0.00014833  0.0067895 0.0000
                      *** Initiating the SOSCF procedure ***
                           *** Shutting down DIIS ***
                      *** Re-Reading the Fockian *** 
                      *** Removing any level shift *** 
ITER      Energy       Delta-E        Grad      Rot      Max-DP    RMS-DP
  5   -747.17666753  -0.0005904999  0.000653  0.000653  0.006686  0.000060
               *** Restarting incremental Fock matrix formation ***
  6   -747.17672216  -0.0000546338  0.000406  0.000786  0.004331  0.000040
  7   -747.17673555  -0.0000133865  0.000152  0.000562  0.003111  0.000029
  8   -747.17673680  -0.0000012520  0.000082  0.000115  0.000948  0.000010
  9   -747.17673785  -0.0000010530  0.000009  0.000015  0.000097  0.000001
 10   -747.17673791  -0.0000000539  0.000007  0.000018  0.000046  0.000000
                  ***Gradient check signals convergence***
              ***Rediagonalizing the Fockian in SOSCF/NRSCF***

               *****************************************************
               *                     SUCCESS                       *
               *           SCF CONVERGED AFTER  11 CYCLES          *
               *****************************************************

Old exchange energy                            =    -30.268742239 Eh
New exchange energy                            =    -30.268738493 Eh
Exchange energy change after final integration =      0.000003746 Eh
Total energy after final integration           =   -747.176734166 Eh
Final COS-X integration done in                =    30.163 sec

----------------
TOTAL SCF ENERGY
----------------

Total Energy       :         -747.17673417 Eh          -20331.71258 eV

Components:
Nuclear Repulsion  :         1099.54367032 Eh           29920.10438 eV
Electronic Energy  :        -1846.72040448 Eh          -50251.81696 eV
One Electron Energy:        -3208.48198647 Eh          -87307.23347 eV
Two Electron Energy:         1361.76158199 Eh           37055.41651 eV
Max COSX asymmetry :            0.00000173 Eh               0.00005 eV

Virial components:
Potential Energy   :        -1491.17517706 Eh          -40576.93946 eV
Kinetic Energy     :          743.99844289 Eh           20245.22688 eV
Virial Ratio       :            2.00427191


DFT components:
N(Alpha)           :       56.999868445332 electrons
N(Beta)            :       56.999868445332 electrons
N(Total)           :      113.999736890665 electrons
E(XC)              :      -70.128850477648 Eh       
DFET-embed. en.    :        0.000000000000 Eh       

---------------
SCF CONVERGENCE
---------------

  Last Energy change         ...   -5.4905e-09  Tolerance :   1.0000e-08
  Last MAX-Density change    ...    1.5543e-15  Tolerance :   1.0000e-07
  Last RMS-Density change    ...    1.5895e-17  Tolerance :   5.0000e-09
  Last Orbital Gradient      ...    2.2314e-06  Tolerance :   1.0000e-05
  Last Orbital Rotation      ...    7.0839e-06  Tolerance :   1.0000e-05

             **** THE GBW FILE WAS UPDATED (BisTris_opt.gbw) ****
             **** DENSITY BisTris_opt.scfp WAS UPDATED ****
             **** ENERGY FILE WAS UPDATED (BisTris_opt.en.tmp) ****
             **** THE GBW FILE WAS UPDATED (BisTris_opt.gbw) ****
             **** DENSITY BisTris_opt.scfp WAS UPDATED ****
----------------
ORBITAL ENERGIES
----------------

  NO   OCC          E(Eh)            E(eV) 
   0   2.0000     -19.199374      -522.4415 
   1   2.0000     -19.165292      -521.5141 
   2   2.0000     -19.161914      -521.4222 
   3   2.0000     -19.158549      -521.3306 
   4   2.0000     -19.156885      -521.2853 
   5   2.0000     -14.365079      -390.8937 
   6   2.0000     -10.301689      -280.3232 
   7   2.0000     -10.291280      -280.0400 
   8   2.0000     -10.289955      -280.0039 
   9   2.0000     -10.283946      -279.8404 
  10   2.0000     -10.281285      -279.7680 
  11   2.0000     -10.277365      -279.6613 
  12   2.0000     -10.262046      -279.2445 
  13   2.0000     -10.251654      -278.9617 
  14   2.0000      -1.161727       -31.6122 
  15   2.0000      -1.122056       -30.5327 
  16   2.0000      -1.111018       -30.2323 
  17   2.0000      -1.109689       -30.1962 
  18   2.0000      -1.105646       -30.0862 
  19   2.0000      -1.020098       -27.7583 
  20   2.0000      -0.911184       -24.7946 
  21   2.0000      -0.863033       -23.4843 
  22   2.0000      -0.819421       -22.2976 
  23   2.0000      -0.794224       -21.6119 
  24   2.0000      -0.787617       -21.4322 
  25   2.0000      -0.718633       -19.5550 
  26   2.0000      -0.700738       -19.0680 
  27   2.0000      -0.654265       -17.8035 
  28   2.0000      -0.637596       -17.3499 
  29   2.0000      -0.618903       -16.8412 
  30   2.0000      -0.607086       -16.5197 
  31   2.0000      -0.604490       -16.4490 
  32   2.0000      -0.600133       -16.3305 
  33   2.0000      -0.587061       -15.9747 
  34   2.0000      -0.572207       -15.5705 
  35   2.0000      -0.556632       -15.1467 
  36   2.0000      -0.541250       -14.7282 
  37   2.0000      -0.533713       -14.5231 
  38   2.0000      -0.512332       -13.9413 
  39   2.0000      -0.504724       -13.7342 
  40   2.0000      -0.501990       -13.6598 
  41   2.0000      -0.486104       -13.2276 
  42   2.0000      -0.474111       -12.9012 
  43   2.0000      -0.468186       -12.7400 
  44   2.0000      -0.459827       -12.5125 
  45   2.0000      -0.446755       -12.1568 
  46   2.0000      -0.433796       -11.8042 
  47   2.0000      -0.425723       -11.5845 
  48   2.0000      -0.409192       -11.1347 
  49   2.0000      -0.406299       -11.0559 
  50   2.0000      -0.399572       -10.8729 
  51   2.0000      -0.386577       -10.5193 
  52   2.0000      -0.366521        -9.9735 
  53   2.0000      -0.359507        -9.7827 
  54   2.0000      -0.345895        -9.4123 
  55   2.0000      -0.340732        -9.2718 
  56   2.0000      -0.288080        -7.8391 
  57   0.0000       0.105139         2.8610 
  58   0.0000       0.123057         3.3486 
  59   0.0000       0.130464         3.5501 
  60   0.0000       0.133944         3.6448 
  61   0.0000       0.144783         3.9397 
  62   0.0000       0.150036         4.0827 
  63   0.0000       0.151480         4.1220 
  64   0.0000       0.161781         4.4023 
  65   0.0000       0.176349         4.7987 
  66   0.0000       0.183009         4.9799 
  67   0.0000       0.188025         5.1164 
  68   0.0000       0.202798         5.5184 
  69   0.0000       0.208952         5.6859 
  70   0.0000       0.213242         5.8026 
  71   0.0000       0.223384         6.0786 
  72   0.0000       0.228482         6.2173 
  73   0.0000       0.242173         6.5899 
  74   0.0000       0.245073         6.6688 
  75   0.0000       0.245628         6.6839 
  76   0.0000       0.255589         6.9549 
  77   0.0000       0.264101         7.1865 
  78   0.0000       0.267195         7.2707 
  79   0.0000       0.278932         7.5901 
  80   0.0000       0.283187         7.7059 
  81   0.0000       0.294048         8.0015 
  82   0.0000       0.302239         8.2243 
  83   0.0000       0.310673         8.4538 
  84   0.0000       0.317468         8.6388 
  85   0.0000       0.325144         8.8476 
  86   0.0000       0.336458         9.1555 
  87   0.0000       0.349093         9.4993 
  88   0.0000       0.364750         9.9254 
  89   0.0000       0.377652        10.2764 
  90   0.0000       0.383196        10.4273 
  91   0.0000       0.404257        11.0004 
  92   0.0000       0.408444        11.1143 
  93   0.0000       0.412924        11.2362 
  94   0.0000       0.414714        11.2849 
  95   0.0000       0.428282        11.6541 
  96   0.0000       0.432867        11.7789 
  97   0.0000       0.439277        11.9533 
  98   0.0000       0.444281        12.0895 
  99   0.0000       0.450053        12.2466 
 100   0.0000       0.456498        12.4219 
 101   0.0000       0.464957        12.6521 
 102   0.0000       0.473449        12.8832 
 103   0.0000       0.478261        13.0141 
 104   0.0000       0.482492        13.1293 
 105   0.0000       0.493722        13.4348 
 106   0.0000       0.498732        13.5712 
 107   0.0000       0.503823        13.7097 
 108   0.0000       0.509039        13.8517 
 109   0.0000       0.510587        13.8938 
 110   0.0000       0.517325        14.0771 
 111   0.0000       0.525705        14.3052 
 112   0.0000       0.529477        14.4078 
 113   0.0000       0.536500        14.5989 
 114   0.0000       0.540022        14.6948 
 115   0.0000       0.541701        14.7404 
 116   0.0000       0.550785        14.9876 
 117   0.0000       0.556664        15.1476 
 118   0.0000       0.562608        15.3094 
 119   0.0000       0.565997        15.4015 
 120   0.0000       0.572745        15.5852 
 121   0.0000       0.575338        15.6557 
 122   0.0000       0.582037        15.8380 
 123   0.0000       0.586655        15.9637 
 124   0.0000       0.588810        16.0223 
 125   0.0000       0.598317        16.2810 
 126   0.0000       0.608777        16.5657 
 127   0.0000       0.612340        16.6626 
 128   0.0000       0.624325        16.9887 
 129   0.0000       0.633481        17.2379 
 130   0.0000       0.634981        17.2787 
 131   0.0000       0.639981        17.4148 
 132   0.0000       0.640860        17.4387 
 133   0.0000       0.647064        17.6075 
 134   0.0000       0.651757        17.7352 
 135   0.0000       0.663379        18.0515 
 136   0.0000       0.670460        18.2441 
 137   0.0000       0.682068        18.5600 
 138   0.0000       0.690343        18.7852 
 139   0.0000       0.694391        18.8953 
 140   0.0000       0.703501        19.1432 
 141   0.0000       0.721749        19.6398 
 142   0.0000       0.726909        19.7802 
 143   0.0000       0.730690        19.8831 
 144   0.0000       0.745945        20.2982 
 145   0.0000       0.758731        20.6461 
 146   0.0000       0.769353        20.9352 
 147   0.0000       0.775064        21.0906 
 148   0.0000       0.789937        21.4953 
 149   0.0000       0.791499        21.5378 
 150   0.0000       0.810471        22.0540 
 151   0.0000       0.822841        22.3907 
 152   0.0000       0.834699        22.7133 
 153   0.0000       0.859202        23.3801 
 154   0.0000       0.869704        23.6659 
 155   0.0000       0.904878        24.6230 
 156   0.0000       0.905666        24.6444 
 157   0.0000       0.923011        25.1164 
 158   0.0000       0.941094        25.6085 
 159   0.0000       0.948817        25.8186 
 160   0.0000       0.963925        26.2297 
 161   0.0000       0.967731        26.3333 
 162   0.0000       0.976909        26.5830 
 163   0.0000       0.993987        27.0478 
 164   0.0000       1.008588        27.4451 
 165   0.0000       1.018566        27.7166 
 166   0.0000       1.026422        27.9304 
 167   0.0000       1.038881        28.2694 
 168   0.0000       1.044570        28.4242 
 169   0.0000       1.053448        28.6658 
 170   0.0000       1.057866        28.7860 
 171   0.0000       1.074234        29.2314 
 172   0.0000       1.088887        29.6301 
 173   0.0000       1.101455        29.9721 
 174   0.0000       1.112574        30.2747 
 175   0.0000       1.116088        30.3703 
 176   0.0000       1.124123        30.5889 
 177   0.0000       1.132475        30.8162 
 178   0.0000       1.144858        31.1532 
 179   0.0000       1.161100        31.5951 
 180   0.0000       1.177475        32.0407 
 181   0.0000       1.185380        32.2558 
 182   0.0000       1.199048        32.6278 
 183   0.0000       1.215001        33.0619 
 184   0.0000       1.225843        33.3569 
 185   0.0000       1.231267        33.5045 
 186   0.0000       1.246380        33.9157 
 187   0.0000       1.280035        34.8315 
 188   0.0000       1.280437        34.8425 
 189   0.0000       1.294230        35.2178 
 190   0.0000       1.320205        35.9246 
 191   0.0000       1.321834        35.9689 
 192   0.0000       1.349519        36.7223 
 193   0.0000       1.354932        36.8696 
 194   0.0000       1.361318        37.0434 
 195   0.0000       1.374075        37.3905 
 196   0.0000       1.385987        37.7146 
 197   0.0000       1.392271        37.8856 
 198   0.0000       1.405037        38.2330 
 199   0.0000       1.417286        38.5663 
 200   0.0000       1.432160        38.9711 
 201   0.0000       1.448605        39.4185 
 202   0.0000       1.489719        40.5373 
 203   0.0000       1.506394        40.9911 
 204   0.0000       1.518305        41.3152 
 205   0.0000       1.530384        41.6439 
 206   0.0000       1.552333        42.2411 
 207   0.0000       1.575614        42.8746 
 208   0.0000       1.580362        43.0038 
 209   0.0000       1.580827        43.0165 
 210   0.0000       1.594575        43.3906 
 211   0.0000       1.612033        43.8657 
 212   0.0000       1.627058        44.2745 
 213   0.0000       1.635813        44.5127 
 214   0.0000       1.647278        44.8247 
 215   0.0000       1.668268        45.3959 
 216   0.0000       1.675909        45.6038 
 217   0.0000       1.689608        45.9766 
 218   0.0000       1.700606        46.2758 
 219   0.0000       1.715197        46.6729 
 220   0.0000       1.718576        46.7648 
 221   0.0000       1.723619        46.9021 
 222   0.0000       1.726287        46.9747 
 223   0.0000       1.733181        47.1623 
 224   0.0000       1.738963        47.3196 
 225   0.0000       1.748604        47.5819 
 226   0.0000       1.755016        47.7564 
 227   0.0000       1.760879        47.9159 
 228   0.0000       1.763830        47.9963 
 229   0.0000       1.773324        48.2546 
 230   0.0000       1.777573        48.3702 
 231   0.0000       1.782709        48.5100 
 232   0.0000       1.790953        48.7343 
 233   0.0000       1.804852        49.1125 
 234   0.0000       1.812277        49.3146 
 235   0.0000       1.820938        49.5502 
 236   0.0000       1.842230        50.1296 
 237   0.0000       1.842573        50.1389 
 238   0.0000       1.859761        50.6067 
 239   0.0000       1.876417        51.0599 
 240   0.0000       1.880658        51.1753 
 241   0.0000       1.888849        51.3982 
 242   0.0000       1.913135        52.0591 
 243   0.0000       1.923614        52.3442 
 244   0.0000       1.933035        52.6006 
 245   0.0000       1.942070        52.8464 
 246   0.0000       1.960243        53.3409 
 247   0.0000       1.968154        53.5562 
 248   0.0000       1.982090        53.9354 
 249   0.0000       2.004587        54.5476 
 250   0.0000       2.019356        54.9495 
 251   0.0000       2.026642        55.1477 
 252   0.0000       2.045636        55.6646 
 253   0.0000       2.048898        55.7534 
 254   0.0000       2.051745        55.8308 
 255   0.0000       2.068656        56.2910 
 256   0.0000       2.073468        56.4219 
 257   0.0000       2.084491        56.7219 
 258   0.0000       2.101514        57.1851 
 259   0.0000       2.109222        57.3949 
 260   0.0000       2.118173        57.6384 
 261   0.0000       2.139055        58.2066 
 262   0.0000       2.143688        58.3327 
 263   0.0000       2.156996        58.6948 
 264   0.0000       2.171318        59.0846 
 265   0.0000       2.190244        59.5996 
 266   0.0000       2.202244        59.9261 
 267   0.0000       2.212892        60.2159 
 268   0.0000       2.222913        60.4885 
 269   0.0000       2.233819        60.7853 
 270   0.0000       2.246821        61.1391 
 271   0.0000       2.255842        61.3846 
 272   0.0000       2.265494        61.6472 
 273   0.0000       2.272949        61.8501 
 274   0.0000       2.283941        62.1492 
 275   0.0000       2.291643        62.3588 
 276   0.0000       2.296340        62.4866 
 277   0.0000       2.306340        62.7587 
 278   0.0000       2.307579        62.7924 
 279   0.0000       2.330111        63.4055 
 280   0.0000       2.349858        63.9429 
 281   0.0000       2.360504        64.2326 
 282   0.0000       2.362832        64.2959 
 283   0.0000       2.391887        65.0866 
 284   0.0000       2.411682        65.6252 
 285   0.0000       2.415627        65.7326 
 286   0.0000       2.430378        66.1339 
 287   0.0000       2.446578        66.5748 
 288   0.0000       2.453811        66.7716 
 289   0.0000       2.454798        66.7985 
 290   0.0000       2.468977        67.1843 
 291   0.0000       2.475225        67.3543 
 292   0.0000       2.486597        67.6638 
 293   0.0000       2.493676        67.8564 
 294   0.0000       2.505289        68.1724 
 295   0.0000       2.518815        68.5404 
 296   0.0000       2.526626        68.7530 
 297   0.0000       2.536838        69.0309 
 298   0.0000       2.544829        69.2483 
 299   0.0000       2.558096        69.6093 
 300   0.0000       2.572251        69.9945 
 301   0.0000       2.584668        70.3324 
 302   0.0000       2.599510        70.7363 
 303   0.0000       2.605413        70.8969 
 304   0.0000       2.611726        71.0687 
 305   0.0000       2.622784        71.3696 
 306   0.0000       2.636685        71.7478 
 307   0.0000       2.644052        71.9483 
 308   0.0000       2.668921        72.6250 
 309   0.0000       2.673501        72.7497 
 310   0.0000       2.688941        73.1698 
 311   0.0000       2.698824        73.4387 
 312   0.0000       2.705705        73.6260 
 313   0.0000       2.710410        73.7540 
 314   0.0000       2.730874        74.3109 
 315   0.0000       2.736895        74.4747 
 316   0.0000       2.749561        74.8194 
 317   0.0000       2.762180        75.1627 
 318   0.0000       2.771474        75.4157 
 319   0.0000       2.785773        75.8047 
 320   0.0000       2.792644        75.9917 
 321   0.0000       2.802165        76.2508 
 322   0.0000       2.808251        76.4164 
 323   0.0000       2.826017        76.8998 
 324   0.0000       2.832361        77.0725 
 325   0.0000       2.847971        77.4972 
 326   0.0000       2.855866        77.7121 
 327   0.0000       2.865921        77.9857 
 328   0.0000       2.873443        78.1904 
 329   0.0000       2.875461        78.2453 
 330   0.0000       2.886601        78.5484 
 331   0.0000       2.906120        79.0796 
 332   0.0000       2.915958        79.3472 
 333   0.0000       2.926915        79.6454 
 334   0.0000       2.938403        79.9580 
 335   0.0000       2.954900        80.4069 
 336   0.0000       2.960047        80.5470 
 337   0.0000       2.971641        80.8625 
 338   0.0000       2.981563        81.1325 
 339   0.0000       2.986921        81.2783 
 340   0.0000       3.009116        81.8822 
 341   0.0000       3.023901        82.2845 
 342   0.0000       3.029197        82.4286 
 343   0.0000       3.040944        82.7483 
 344   0.0000       3.054753        83.1241 
 345   0.0000       3.063328        83.3574 
 346   0.0000       3.074268        83.6551 
 347   0.0000       3.084221        83.9259 
 348   0.0000       3.101096        84.3851 
 349   0.0000       3.137776        85.3832 
 350   0.0000       3.140242        85.4503 
 351   0.0000       3.154789        85.8462 
 352   0.0000       3.164704        86.1160 
 353   0.0000       3.167771        86.1994 
 354   0.0000       3.173516        86.3558 
 355   0.0000       3.184364        86.6509 
 356   0.0000       3.213041        87.4313 
 357   0.0000       3.235085        88.0311 
 358   0.0000       3.242444        88.2314 
 359   0.0000       3.247999        88.3825 
 360   0.0000       3.263468        88.8035 
 361   0.0000       3.267180        88.9045 
 362   0.0000       3.292368        89.5899 
 363   0.0000       3.300247        89.8043 
 364   0.0000       3.306988        89.9877 
 365   0.0000       3.319157        90.3189 
 366   0.0000       3.329973        90.6132 
 367   0.0000       3.333080        90.6977 
 368   0.0000       3.340783        90.9073 
 369   0.0000       3.363438        91.5238 
 370   0.0000       3.368392        91.6586 
 371   0.0000       3.385110        92.1135 
 372   0.0000       3.406271        92.6894 
 373   0.0000       3.413937        92.8980 
 374   0.0000       3.431070        93.3642 
 375   0.0000       3.437821        93.5479 
 376   0.0000       3.452785        93.9551 
 377   0.0000       3.454710        94.0074 
 378   0.0000       3.465944        94.3131 
 379   0.0000       3.470105        94.4264 
 380   0.0000       3.490170        94.9724 
 381   0.0000       3.498016        95.1858 
 382   0.0000       3.506539        95.4178 
 383   0.0000       3.513094        95.5961 
 384   0.0000       3.526021        95.9479 
 385   0.0000       3.530446        96.0683 
 386   0.0000       3.551151        96.6317 
 387   0.0000       3.560725        96.8923 
 388   0.0000       3.566408        97.0469 
 389   0.0000       3.585016        97.5532 
 390   0.0000       3.589139        97.6654 
 391   0.0000       3.593851        97.7937 
 392   0.0000       3.623645        98.6044 
 393   0.0000       3.638206        99.0006 
 394   0.0000       3.642447        99.1160 
 395   0.0000       3.650826        99.3440 
 396   0.0000       3.667893        99.8084 
 397   0.0000       3.691000       100.4372 
 398   0.0000       3.697303       100.6087 
 399   0.0000       3.719628       101.2162 
 400   0.0000       3.734677       101.6257 
 401   0.0000       3.753711       102.1437 
 402   0.0000       3.759511       102.3015 
 403   0.0000       3.790464       103.1438 
 404   0.0000       3.797911       103.3464 
 405   0.0000       3.814978       103.8108 
 406   0.0000       3.820206       103.9531 
 407   0.0000       3.853040       104.8465 
 408   0.0000       3.877698       105.5175 
 409   0.0000       3.896528       106.0299 
 410   0.0000       3.907760       106.3356 
 411   0.0000       3.911531       106.4382 
 412   0.0000       3.934102       107.0524 
 413   0.0000       3.958043       107.7038 
 414   0.0000       3.966023       107.9210 
 415   0.0000       3.992442       108.6399 
 416   0.0000       4.002026       108.9007 
 417   0.0000       4.011474       109.1578 
 418   0.0000       4.024627       109.5157 
 419   0.0000       4.029255       109.6416 
 420   0.0000       4.043853       110.0388 
 421   0.0000       4.056660       110.3873 
 422   0.0000       4.079204       111.0008 
 423   0.0000       4.119166       112.0882 
 424   0.0000       4.132359       112.4472 
 425   0.0000       4.168682       113.4356 
 426   0.0000       4.187413       113.9453 
 427   0.0000       4.188635       113.9785 
 428   0.0000       4.202924       114.3674 
 429   0.0000       4.233088       115.1882 
 430   0.0000       4.248358       115.6037 
 431   0.0000       4.292135       116.7949 
 432   0.0000       4.305708       117.1643 
 433   0.0000       4.355960       118.5317 
 434   0.0000       4.359838       118.6372 
 435   0.0000       4.383867       119.2911 
 436   0.0000       4.389211       119.4365 
 437   0.0000       4.414187       120.1161 
 438   0.0000       4.432421       120.6123 
 439   0.0000       4.441873       120.8695 
 440   0.0000       4.476290       121.8060 
 441   0.0000       4.515517       122.8735 
 442   0.0000       4.533549       123.3641 
 443   0.0000       4.537424       123.4696 
 444   0.0000       4.563788       124.1870 
 445   0.0000       4.574775       124.4859 
 446   0.0000       4.600208       125.1780 
 447   0.0000       4.642533       126.3297 
 448   0.0000       4.671743       127.1246 
 449   0.0000       4.707979       128.1106 
 450   0.0000       4.724631       128.5637 
 451   0.0000       4.756076       129.4194 
 452   0.0000       4.781156       130.1019 
 453   0.0000       4.801595       130.6580 
 454   0.0000       4.829694       131.4226 
 455   0.0000       4.877507       132.7237 
 456   0.0000       4.910117       133.6111 
 457   0.0000       4.967666       135.1771 
 458   0.0000       5.006430       136.2319 
 459   0.0000       5.052077       137.4740 
 460   0.0000       5.078321       138.1881 
 461   0.0000       5.119728       139.3149 
 462   0.0000       5.145804       140.0244 
 463   0.0000       5.241139       142.6186 
 464   0.0000       5.252594       142.9304 
 465   0.0000       5.381022       146.4250 
 466   0.0000       5.397350       146.8694 
 467   0.0000       5.403108       147.0260 
 468   0.0000       5.412813       147.2901 
 469   0.0000       5.416474       147.3897 
 470   0.0000       5.427813       147.6983 
 471   0.0000       5.448304       148.2559 
 472   0.0000       5.482497       149.1863 
 473   0.0000       5.483123       149.2034 
 474   0.0000       5.491050       149.4191 
 475   0.0000       5.505948       149.8244 
 476   0.0000       5.512997       150.0163 
 477   0.0000       5.559198       151.2735 
 478   0.0000       5.583151       151.9253 
 479   0.0000       5.594855       152.2437 
 480   0.0000       5.612079       152.7124 
 481   0.0000       5.617014       152.8467 
 482   0.0000       5.626844       153.1142 
 483   0.0000       5.634984       153.3357 
 484   0.0000       5.659091       153.9917 
 485   0.0000       5.668125       154.2375 
 486   0.0000       5.844970       159.0497 
 487   0.0000       5.849846       159.1824 
 488   0.0000       5.857444       159.3891 
 489   0.0000       5.862247       159.5199 
 490   0.0000       5.872393       159.7959 
 491   0.0000       5.885954       160.1650 
 492   0.0000       5.893384       160.3671 
 493   0.0000       5.903321       160.6375 
 494   0.0000       5.911645       160.8640 
 495   0.0000       5.917907       161.0344 
 496   0.0000       5.964465       162.3014 
 497   0.0000       5.984014       162.8333 
 498   0.0000       5.993427       163.0894 
 499   0.0000       5.995408       163.1434 
 500   0.0000       6.013231       163.6283 
 501   0.0000       6.028551       164.0452 
 502   0.0000       6.088669       165.6811 
 503   0.0000       6.166471       167.7982 
 504   0.0000       6.413038       174.5076 
 505   0.0000       6.420627       174.7142 
 506   0.0000       6.438813       175.2090 
 507   0.0000       6.456488       175.6900 
 508   0.0000       6.494172       176.7154 
[...]
     46       0.000027  -0.000007   0.000033
     47       0.000033  -0.000058   0.000034
     48       0.000026   0.000129   0.000073
     49      -0.000012  -0.000236   0.000030
     50      -0.000011  -0.000315   0.000053
     51      -0.000116  -0.000244  -0.000085
     52       0.000080   0.000277   0.000126
     53       0.000040   0.000180   0.000022
     54      -0.000071   0.000005  -0.000006
     55       0.000032  -0.000090   0.000004
     56       0.000001   0.000042  -0.000015
     57       0.000155  -0.000329  -0.000035
     58      -0.000097   0.000422   0.000042
     59      -0.000026   0.000068   0.000034
     60      -0.000106   0.000294  -0.000010
     61       0.000006   0.000214  -0.000035
     62       0.000141  -0.000110   0.000027
     63      -0.001507  -0.000009  -0.000077
     64       0.000725   0.000011   0.000041
     65      -0.000009  -0.000026   0.000009
     66      -0.000563  -0.000052  -0.000267
     67       0.001146  -0.000024  -0.001576
     68      -0.004748   0.000059   0.000608
     69       0.042984  -0.001204   0.001161
     70      -0.005548   0.000151  -0.000115
     71       0.044987  -0.001258   0.001230
     72       0.001336  -0.000143   0.000076
     73      -0.001842   0.000021   0.000082
     74      -0.002323   0.000120  -0.000175
     75      -0.000424   0.000055   0.001877
     76       0.000130  -0.000050  -0.000805
     77       0.000404  -0.000087  -0.003749
     78      -0.000230   0.000021   0.000031
     79      -0.000421   0.000210   0.005421
     80       0.000130  -0.000077  -0.003473
     81      -0.000666   0.000412   0.024287
     82       0.001359  -0.000881  -0.051946
     83      -0.000646   0.000418   0.024969
     84      -0.692966   0.019264  -0.018757
     85       0.107695  -0.002967   0.002823
     86      -0.708465   0.019687  -0.019149
     87       0.010215  -0.006556  -0.386424
     88      -0.022448   0.014282   0.839536
     89       0.009787  -0.006341  -0.375340
     90      -0.007668  -0.272916   0.004462
     91       0.008796   0.310276  -0.005025
     92      -0.025613  -0.907875   0.014732
     93       0.025861  -0.000030   0.001370
     94      -0.012497   0.000061  -0.000608
     95       0.000524   0.000013  -0.000071
     96      -0.000423   0.000380  -0.000497
     97      -0.000485   0.000333  -0.000418
     98      -0.000488   0.000389  -0.000425


-----------
IR SPECTRUM
-----------

 Mode   freq       eps      Int      T**2         TX        TY        TZ
       cm**-1   L/(mol*cm) km/mol    a.u.
----------------------------------------------------------------------------
  6:     43.38   0.000311    1.57  0.002235  ( 0.015977 -0.015882 -0.041568)
  7:     57.89   0.000663    3.35  0.003577  ( 0.037145  0.010667 -0.045644)
  8:     65.82   0.001754    8.87  0.008318  ( 0.069354  0.057479 -0.014283)
  9:     97.53   0.001722    8.70  0.005508  ( 0.073963  0.002667 -0.005543)
 10:    147.19   0.000802    4.05  0.001700  (-0.011014 -0.016661 -0.036078)
 11:    159.81   0.002350   11.88  0.004589  ( 0.000509 -0.064735  0.019959)
 12:    164.18   0.014903   75.32  0.028327  (-0.156767 -0.036952  0.048848)
 13:    172.54   0.006235   31.51  0.011278  (-0.096889  0.015022  0.040797)
 14:    177.83   0.001167    5.90  0.002047  ( 0.038219  0.023114 -0.007221)
 15:    182.77   0.021138  106.82  0.036093  ( 0.179014  0.047000 -0.042869)
 16:    215.76   0.000323    1.63  0.000467  ( 0.004626  0.007439  0.019755)
 17:    239.62   0.000416    2.10  0.000542  (-0.020456 -0.005350  0.009719)
 18:    250.32   0.000778    3.93  0.000970  (-0.019962  0.019538 -0.013785)
 19:    255.74   0.000329    1.66  0.000401  ( 0.007861 -0.005097 -0.017706)
 20:    274.56   0.019919  100.66  0.022640  ( 0.103256  0.093172 -0.057419)
 21:    296.81   0.000597    3.02  0.000627  (-0.019677 -0.011508  0.010386)
 22:    321.39   0.000186    0.94  0.000181  ( 0.004940  0.008957 -0.008739)
 23:    337.14   0.000373    1.88  0.000345  ( 0.002685  0.010060  0.015386)
 24:    388.88   0.000288    1.45  0.000231  (-0.002760 -0.005052  0.014056)
 25:    402.65   0.000308    1.56  0.000239  (-0.008237 -0.010524 -0.007760)
 26:    415.72   0.000657    3.32  0.000493  (-0.012565 -0.003809 -0.017916)
 27:    456.16   0.001956    9.88  0.001338  ( 0.015457 -0.009699  0.031704)
 28:    491.53   0.019289   97.48  0.012246  ( 0.103622 -0.000505 -0.038835)
 29:    515.44   0.002794   14.12  0.001692  (-0.034829 -0.020665  0.007184)
 30:    545.31   0.002507   12.67  0.001435  (-0.036906 -0.004290  0.007364)
 31:    553.03   0.001036    5.24  0.000585  ( 0.019248 -0.014044  0.004134)
 32:    650.64   0.006687   33.80  0.003207  (-0.001431  0.050847  0.024899)
 33:    675.94   0.024065  121.62  0.011110  ( 0.017270  0.075776  0.071205)
 34:    733.92   0.002808   14.19  0.001194  (-0.002678  0.022243 -0.026304)
 35:    851.97   0.001633    8.25  0.000598  ( 0.013790 -0.014907  0.013631)
 36:    881.18   0.000584    2.95  0.000207  ( 0.002741  0.013679  0.003468)
 37:    901.23   0.007664   38.73  0.002654  ( 0.014544 -0.001379  0.049401)
 38:    941.14   0.001804    9.11  0.000598  (-0.008479 -0.011222 -0.020005)
 39:    954.66   0.001437    7.26  0.000470  (-0.019841  0.006570 -0.005726)
 40:    958.11   0.002756   13.93  0.000898  (-0.010494 -0.005989  0.027419)
 41:   1003.11   0.000027    0.13  0.000008  (-0.001633  0.002354  0.000279)
 42:   1048.26   0.008488   42.89  0.002527  ( 0.005030  0.021779  0.045023)
 43:   1069.14   0.003518   17.78  0.001027  (-0.028928  0.013109 -0.004261)
 44:   1082.90   0.005819   29.41  0.001677  (-0.025196 -0.024613 -0.020884)
 45:   1110.14   0.003720   18.80  0.001046  (-0.004078  0.022677  0.022689)
 46:   1124.59   0.011712   59.19  0.003250  ( 0.012782 -0.052186 -0.019056)
 47:   1129.86   0.000308    1.56  0.000085  (-0.005186 -0.007623 -0.000219)
 48:   1137.27   0.033952  171.58  0.009316  ( 0.004948 -0.024922  0.093118)
 49:   1142.90   0.003232   16.34  0.000883  ( 0.001159 -0.029296  0.004797)
 50:   1157.95   0.002983   15.07  0.000804  (-0.010895 -0.000693 -0.026166)
 51:   1175.58   0.008666   43.79  0.002300  (-0.017201  0.019309  0.040394)
 52:   1199.59   0.018966   95.85  0.004934  ( 0.002386 -0.059309 -0.037559)
 53:   1219.19   0.005774   29.18  0.001478  (-0.030822 -0.005638 -0.022274)
 54:   1238.72   0.003330   16.83  0.000839  ( 0.005090  0.014485  0.024557)
 55:   1243.53   0.003448   17.42  0.000865  (-0.015091 -0.009011  0.023586)
 56:   1261.14   0.000172    0.87  0.000043  (-0.000040 -0.000654 -0.006489)
 57:   1264.26   0.004757   24.04  0.001174  ( 0.008777 -0.007334 -0.032301)
 58:   1293.92   0.007423   37.51  0.001790  ( 0.023294  0.035224  0.002619)
 59:   1302.42   0.001195    6.04  0.000286  ( 0.007286  0.013620  0.006909)
 60:   1323.82   0.003736   18.88  0.000881  (-0.019974 -0.009779 -0.019647)
 61:   1343.70   0.003052   15.43  0.000709  ( 0.003573 -0.024889  0.008757)
 62:   1361.05   0.002053   10.37  0.000471  ( 0.018898  0.003911  0.009910)
 63:   1370.10   0.003179   16.07  0.000724  ( 0.015861 -0.000059 -0.021739)
 64:   1397.45   0.002788   14.09  0.000623  ( 0.012794 -0.021267  0.002558)
 65:   1403.48   0.001670    8.44  0.000371  ( 0.010001  0.016226  0.002817)
 66:   1424.47   0.001846    9.33  0.000404  ( 0.015927  0.010827 -0.005788)
 67:   1440.74   0.000821    4.15  0.000178  ( 0.005605 -0.011564 -0.003557)
 68:   1455.15   0.001319    6.66  0.000283  (-0.006969 -0.009850  0.011715)
 69:   1463.34   0.002826   14.28  0.000603  ( 0.004443 -0.007989 -0.022783)
 70:   1469.17   0.005954   30.09  0.001265  ( 0.006393  0.023506 -0.025908)
 71:   1475.68   0.000920    4.65  0.000195  ( 0.009436  0.010017  0.002267)
 72:   1480.67   0.012059   60.94  0.002541  ( 0.016294  0.002492 -0.047642)
 73:   1486.46   0.000294    1.49  0.000062  ( 0.001196 -0.004385 -0.006413)
 74:   1498.90   0.002779   14.04  0.000578  ( 0.009507  0.000374  0.022090)
 75:   1506.44   0.001224    6.19  0.000254  (-0.011496 -0.010902  0.001601)
 76:   1515.36   0.001555    7.86  0.000320  (-0.001079  0.017501 -0.003561)
 77:   1528.11   0.002064   10.43  0.000421  (-0.009453  0.015405 -0.009738)
 78:   1530.00   0.001935    9.78  0.000395  ( 0.003875 -0.009701  0.016896)
 79:   1546.58   0.000770    3.89  0.000155  ( 0.012296 -0.001763 -0.001030)
 80:   2996.67   0.006942   35.08  0.000723  (-0.009933 -0.019233 -0.015949)
 81:   3008.35   0.008751   44.23  0.000908  (-0.026186  0.012633 -0.007906)
 82:   3010.91   0.000129    0.65  0.000013  (-0.001689 -0.001533 -0.002866)
 83:   3019.76   0.017040   86.12  0.001761  (-0.014826  0.022748  0.031995)
 84:   3023.63   0.008966   45.31  0.000925  ( 0.006941 -0.028391  0.008437)
 85:   3039.15   0.021446  108.38  0.002202  (-0.037710  0.010414  0.025916)
 86:   3050.53   0.009472   47.87  0.000969  ( 0.002192  0.024744 -0.018759)
 87:   3058.17   0.009918   50.12  0.001012  ( 0.030006  0.000053 -0.010568)
 88:   3065.44   0.011579   58.52  0.001179  (-0.018328 -0.028998 -0.001409)
 89:   3109.15   0.009723   49.13  0.000976  ( 0.026520 -0.016507  0.000238)
 90:   3118.95   0.002048   10.35  0.000205  (-0.009802 -0.009380  0.004566)
 91:   3123.29   0.004443   22.46  0.000444  (-0.004052 -0.016784 -0.012076)
 92:   3137.89   0.004747   23.99  0.000472  (-0.002731 -0.020079  0.007838)
 93:   3181.95   0.001277    6.45  0.000125  (-0.005857 -0.009324  0.002002)
 94:   3708.41   0.061629  311.45  0.005186  (-0.070256  0.015008 -0.004988)
 95:   3750.79   0.022538  113.90  0.001875  ( 0.017641  0.033069  0.021688)
 96:   3896.36   0.010359   52.35  0.000830  (-0.017324 -0.004055 -0.022651)
 97:   3898.85   0.008874   44.84  0.000710  (-0.008722  0.002400 -0.025068)
 98:   3901.83   0.008474   42.82  0.000678  (-0.009313  0.018711 -0.015520)

* The epsilon (eps) is given for a Dirac delta lineshape.
** The dipole moment derivative (T) already includes vibrational overlap.

The first frequency considered to be a vibration is 6
The total number of vibrations considered is 93


--------------------------
THERMOCHEMISTRY AT 298.15K
--------------------------

Temperature         ... 298.15 K
Pressure            ... 1.00 atm
Total Mass          ... 209.24 AMU

Throughout the following assumptions are being made:
  (1) The electronic state is orbitally nondegenerate
  (2) There are no thermally accessible electronically excited states
  (3) Hindered rotations indicated by low frequency modes are not
      treated as such but are treated as vibrations and this may
      cause some error
  (4) All equations used are the standard statistical mechanics
      equations for an ideal gas
  (5) All vibrations are strictly harmonic

freq.      43.38  E(vib)   ...       0.53 
freq.      57.89  E(vib)   ...       0.51 
freq.      65.82  E(vib)   ...       0.50 
freq.      97.53  E(vib)   ...       0.46 
freq.     147.19  E(vib)   ...       0.41 
freq.     159.81  E(vib)   ...       0.39 
freq.     164.18  E(vib)   ...       0.39 
freq.     172.54  E(vib)   ...       0.38 
freq.     177.83  E(vib)   ...       0.37 
freq.     182.77  E(vib)   ...       0.37 
freq.     215.76  E(vib)   ...       0.34 
freq.     239.62  E(vib)   ...       0.31 
freq.     250.32  E(vib)   ...       0.30 
freq.     255.74  E(vib)   ...       0.30 
freq.     274.56  E(vib)   ...       0.28 
freq.     296.81  E(vib)   ...       0.27 
freq.     321.39  E(vib)   ...       0.25 
freq.     337.14  E(vib)   ...       0.24 
freq.     388.88  E(vib)   ...       0.20 
freq.     402.65  E(vib)   ...       0.19 
freq.     415.72  E(vib)   ...       0.18 
freq.     456.16  E(vib)   ...       0.16 
freq.     491.53  E(vib)   ...       0.14 
freq.     515.44  E(vib)   ...       0.13 
freq.     545.31  E(vib)   ...       0.12 
freq.     553.03  E(vib)   ...       0.12 
freq.     650.64  E(vib)   ...       0.08 
freq.     675.94  E(vib)   ...       0.08 
freq.     733.92  E(vib)   ...       0.06 
freq.     851.97  E(vib)   ...       0.04 
freq.     881.18  E(vib)   ...       0.04 
freq.     901.23  E(vib)   ...       0.03 
freq.     941.14  E(vib)   ...       0.03 
freq.     954.66  E(vib)   ...       0.03 
freq.     958.11  E(vib)   ...       0.03 
freq.    1003.11  E(vib)   ...       0.02 
freq.    1048.26  E(vib)   ...       0.02 
freq.    1069.14  E(vib)   ...       0.02 
freq.    1082.90  E(vib)   ...       0.02 
freq.    1110.14  E(vib)   ...       0.02 
freq.    1124.59  E(vib)   ...       0.01 
freq.    1129.86  E(vib)   ...       0.01 
freq.    1137.27  E(vib)   ...       0.01 
freq.    1142.90  E(vib)   ...       0.01 
freq.    1157.95  E(vib)   ...       0.01 
freq.    1175.58  E(vib)   ...       0.01 
freq.    1199.59  E(vib)   ...       0.01 
freq.    1219.19  E(vib)   ...       0.01 
freq.    1238.72  E(vib)   ...       0.01 
freq.    1243.53  E(vib)   ...       0.01 
freq.    1261.14  E(vib)   ...       0.01 
freq.    1264.26  E(vib)   ...       0.01 
freq.    1293.92  E(vib)   ...       0.01 
freq.    1302.42  E(vib)   ...       0.01 
freq.    1323.82  E(vib)   ...       0.01 
freq.    1343.70  E(vib)   ...       0.01 
freq.    1361.05  E(vib)   ...       0.01 
freq.    1370.10  E(vib)   ...       0.01 
freq.    1397.45  E(vib)   ...       0.00 
freq.    1403.48  E(vib)   ...       0.00 
freq.    1424.47  E(vib)   ...       0.00 
freq.    1440.74  E(vib)   ...       0.00 
freq.    1455.15  E(vib)   ...       0.00 
freq.    1463.34  E(vib)   ...       0.00 
freq.    1469.17  E(vib)   ...       0.00 
freq.    1475.68  E(vib)   ...       0.00 
freq.    1480.67  E(vib)   ...       0.00 
freq.    1486.46  E(vib)   ...       0.00 
freq.    1498.90  E(vib)   ...       0.00 
freq.    1506.44  E(vib)   ...       0.00 
freq.    1515.36  E(vib)   ...       0.00 
freq.    1528.11  E(vib)   ...       0.00 
freq.    1530.00  E(vib)   ...       0.00 
freq.    1546.58  E(vib)   ...       0.00 
freq.    2996.67  E(vib)   ...       0.00 
freq.    3008.35  E(vib)   ...       0.00 
freq.    3010.91  E(vib)   ...       0.00 
freq.    3019.76  E(vib)   ...       0.00 
freq.    3023.63  E(vib)   ...       0.00 
freq.    3039.15  E(vib)   ...       0.00 
freq.    3050.53  E(vib)   ...       0.00 
freq.    3058.17  E(vib)   ...       0.00 
freq.    3065.44  E(vib)   ...       0.00 
freq.    3109.15  E(vib)   ...       0.00 
freq.    3118.95  E(vib)   ...       0.00 
freq.    3123.29  E(vib)   ...       0.00 
freq.    3137.89  E(vib)   ...       0.00 
freq.    3181.95  E(vib)   ...       0.00 
freq.    3708.41  E(vib)   ...       0.00 
freq.    3750.79  E(vib)   ...       0.00 
freq.    3896.36  E(vib)   ...       0.00 
freq.    3898.85  E(vib)   ...       0.00 
freq.    3901.83  E(vib)   ...       0.00 

------------
INNER ENERGY
------------

The inner energy is: U= E(el) + E(ZPE) + E(vib) + E(rot) + E(trans)
    E(el)   - is the total energy from the electronic structure calculation
              = E(kin-el) + E(nuc-el) + E(el-el) + E(nuc-nuc)
    E(ZPE)  - the the zero temperature vibrational energy from the frequency calculation
    E(vib)  - the the finite temperature correction to E(ZPE) due to population
              of excited vibrational states
    E(rot)  - is the rotational thermal energy
    E(trans)- is the translational thermal energy

Summary of contributions to the inner energy U:
Electronic energy                ...   -747.23596924 Eh
Zero point energy                ...      0.29184017 Eh     183.13 kcal/mol
Thermal vibrational correction   ...      0.01371750 Eh       8.61 kcal/mol
Thermal rotational correction    ...      0.00141627 Eh       0.89 kcal/mol
Thermal translational correction ...      0.00141627 Eh       0.89 kcal/mol
-----------------------------------------------------------------------
Total thermal energy                   -746.92757902 Eh


Summary of corrections to the electronic energy:
(perhaps to be used in another calculation)
Total thermal correction                  0.01655005 Eh      10.39 kcal/mol
Non-thermal (ZPE) correction              0.29184017 Eh     183.13 kcal/mol
-----------------------------------------------------------------------
Total correction                          0.30839022 Eh     193.52 kcal/mol


--------
ENTHALPY
--------

The enthalpy is H = U + kB*T
                kB is Boltzmann's constant
Total free energy                 ...   -746.92757902 Eh 
Thermal Enthalpy correction       ...      0.00094421 Eh       0.59 kcal/mol
-----------------------------------------------------------------------
Total Enthalpy                    ...   -746.92663482 Eh


Note: Only C1 symmetry has been detected, increase convergence thresholds 
      if your molecule has a higher symmetry. Symmetry factor of 1.0 is   
      used for the rotational entropy correction. 
 

Note: Rotational entropy computed according to Herzberg 
Infrared and Raman Spectra, Chapter V,1, Van Nostrand Reinhold, 1945 
Point Group:  C1, Symmetry Number:   1  
Rotational constants in cm-1:     0.024510     0.019280     0.017466 

Vibrational entropy computed according to the QRRHO of S. Grimme
Chem.Eur.J. 2012 18 9955


-------
ENTROPY
-------

The entropy contributions are T*S = T*(S(el)+S(vib)+S(rot)+S(trans))
     S(el)   - electronic entropy
     S(vib)  - vibrational entropy
     S(rot)  - rotational entropy
     S(trans)- translational entropy
The entropies will be listed as multiplied by the temperature to get
units of energy

Electronic entropy                ...      0.00000000 Eh      0.00 kcal/mol
Vibrational entropy               ...      0.02395950 Eh     15.03 kcal/mol
Rotational entropy                ...      0.01503656 Eh      9.44 kcal/mol
Translational entropy             ...      0.01991691 Eh     12.50 kcal/mol
-----------------------------------------------------------------------
Final entropy term                ...      0.05891297 Eh     36.97 kcal/mol

In case the symmetry of your molecule has not been determined correctly
or in case you have a reason to use a different symmetry number we print 
out the resulting rotational entropy values for sn=1,12 :
 --------------------------------------------------------
|  sn= 1 | S(rot)=       0.01503656 Eh      9.44 kcal/mol|
|  sn= 2 | S(rot)=       0.01438211 Eh      9.02 kcal/mol|
|  sn= 3 | S(rot)=       0.01399928 Eh      8.78 kcal/mol|
|  sn= 4 | S(rot)=       0.01372765 Eh      8.61 kcal/mol|
|  sn= 5 | S(rot)=       0.01351696 Eh      8.48 kcal/mol|
|  sn= 6 | S(rot)=       0.01334482 Eh      8.37 kcal/mol|
|  sn= 7 | S(rot)=       0.01319927 Eh      8.28 kcal/mol|
|  sn= 8 | S(rot)=       0.01307320 Eh      8.20 kcal/mol|
|  sn= 9 | S(rot)=       0.01296199 Eh      8.13 kcal/mol|
|  sn=10 | S(rot)=       0.01286251 Eh      8.07 kcal/mol|
|  sn=11 | S(rot)=       0.01277252 Eh      8.01 kcal/mol|
|  sn=12 | S(rot)=       0.01269036 Eh      7.96 kcal/mol|
 --------------------------------------------------------


-------------------
GIBBS FREE ENERGY
-------------------

The Gibbs free energy is G = H - T*S

Total enthalpy                    ...   -746.92663482 Eh 
Total entropy correction          ...     -0.05891297 Eh    -36.97 kcal/mol
-----------------------------------------------------------------------
Final Gibbs free energy         ...   -746.98554779 Eh

For completeness - the Gibbs free energy minus the electronic energy
G-E(el)                           ...      0.25042146 Eh    157.14 kcal/mol


Timings for individual modules:

Sum of individual times         ...    12461.772 sec (= 207.696 min)
GTO integral calculation        ...       58.859 sec (=   0.981 min)   0.5 %
SCF iterations                  ...     8385.507 sec (= 139.758 min)  67.3 %
SCF Gradient evaluation         ...     2539.018 sec (=  42.317 min)  20.4 %
Geometry relaxation             ...        4.542 sec (=   0.076 min)   0.0 %
Analytical frequency calculation...     1473.846 sec (=  24.564 min)  11.8 %
                             ****ORCA TERMINATED NORMALLY****
TOTAL RUN TIME: 0 days 3 hours 28 minutes 7 seconds 772 msec
