
                                 *****************
                                 * O   R   C   A *
                                 *****************

                                            #,                                       
                                            ###                                      
                                            ####                                     
                                            #####                                    
                                            ######                                   
                                           ########,                                 
                                     ,,################,,,,,                         
                               ,,#################################,,                 
                          ,,##########################################,,             
                       ,#########################################, ''#####,          
                    ,#############################################,,   '####,        
                  ,##################################################,,,,####,       
                ,###########''''           ''''###############################       
              ,#####''   ,,,,##########,,,,          '''####'''          '####       
            ,##' ,,,,###########################,,,                        '##       
           ' ,,###''''                  '''############,,,                           
         ,,##''                                '''############,,,,        ,,,,,,###''
      ,#''                                            '''#######################'''  
     '                                                          ''''####''''         
             ,#######,   #######,   ,#######,      ##                                
            ,#'     '#,  ##    ##  ,#'     '#,    #''#        ######   ,####,        
            ##       ##  ##   ,#'  ##            #'  '#       #        #'  '#        
            ##       ##  #######   ##           ,######,      #####,   #    #        
            '#,     ,#'  ##    ##  '#,     ,#' ,#      #,         ##   #,  ,#        
             '#######'   ##     ##  '#######'  #'      '#     #####' # '####'        



                  #######################################################
                  #                        -***-                        #
                  #          Department of theory and spectroscopy      #
                  #    Directorship and core code : Frank Neese         #
                  #        Max Planck Institute fuer Kohlenforschung    #
                  #                Kaiser Wilhelm Platz 1               #
                  #                 D-45470 Muelheim/Ruhr               #
                  #                      Germany                        #
                  #                                                     #
                  #                  All rights reserved                #
                  #                        -***-                        #
                  #######################################################


                         Program Version 5.0.4 -  RELEASE  -


 With contributions from (in alphabetic order):
   Daniel Aravena         : Magnetic Suceptibility
   Michael Atanasov       : Ab Initio Ligand Field Theory (pilot matlab implementation)
   Alexander A. Auer      : GIAO ZORA, VPT2 properties, NMR spectrum
   Ute Becker             : Parallelization
   Giovanni Bistoni       : ED, misc. LED, open-shell LED, HFLD
   Martin Brehm           : Molecular dynamics
   Dmytro Bykov           : SCF Hessian
   Vijay G. Chilkuri      : MRCI spin determinant printing, contributions to CSF-ICE
   Dipayan Datta          : RHF DLPNO-CCSD density
   Achintya Kumar Dutta   : EOM-CC, STEOM-CC
   Dmitry Ganyushin       : Spin-Orbit,Spin-Spin,Magnetic field MRCI
   Miquel Garcia          : C-PCM and meta-GGA Hessian, CC/C-PCM, Gaussian charge scheme
   Yang Guo               : DLPNO-NEVPT2, F12-NEVPT2, CIM, IAO-localization
   Andreas Hansen         : Spin unrestricted coupled pair/coupled cluster methods
   Benjamin Helmich-Paris : MC-RPA, TRAH-SCF, COSX integrals
   Lee Huntington         : MR-EOM, pCC
   Robert Izsak           : Overlap fitted RIJCOSX, COSX-SCS-MP3, EOM
   Marcus Kettner         : VPT2
   Christian Kollmar      : KDIIS, OOCD, Brueckner-CCSD(T), CCSD density, CASPT2, CASPT2-K
   Simone Kossmann        : Meta GGA functionals, TD-DFT gradient, OOMP2, MP2 Hessian
   Martin Krupicka        : Initial AUTO-CI
   Lucas Lang             : DCDCAS
   Marvin Lechner         : AUTO-CI (C++ implementation), FIC-MRCC
   Dagmar Lenk            : GEPOL surface, SMD
   Dimitrios Liakos       : Extrapolation schemes; Compound Job, initial MDCI parallelization
   Dimitrios Manganas     : Further ROCIS development; embedding schemes
   Dimitrios Pantazis     : SARC Basis sets
   Anastasios Papadopoulos: AUTO-CI, single reference methods and gradients
   Taras Petrenko         : DFT Hessian,TD-DFT gradient, ASA, ECA, R-Raman, ABS, FL, XAS/XES, NRVS
   Peter Pinski           : DLPNO-MP2, DLPNO-MP2 Gradient
   Christoph Reimann      : Effective Core Potentials
   Marius Retegan         : Local ZFS, SOC
   Christoph Riplinger    : Optimizer, TS searches, QM/MM, DLPNO-CCSD(T), (RO)-DLPNO pert. Triples
   Tobias Risthaus        : Range-separated hybrids, TD-DFT gradient, RPA, STAB
   Michael Roemelt        : Original ROCIS implementation
   Masaaki Saitow         : Open-shell DLPNO-CCSD energy and density
   Barbara Sandhoefer     : DKH picture change effects
   Avijit Sen             : IP-ROCIS
   Kantharuban Sivalingam : CASSCF convergence, NEVPT2, FIC-MRCI
   Bernardo de Souza      : ESD, SOC TD-DFT
   Georgi Stoychev        : AutoAux, RI-MP2 NMR, DLPNO-MP2 response
   Willem Van den Heuvel  : Paramagnetic NMR
   Boris Wezisla          : Elementary symmetry handling
   Frank Wennmohs         : Technical directorship


 We gratefully acknowledge several colleagues who have allowed us to
 interface, adapt or use parts of their codes:
   Stefan Grimme, W. Hujo, H. Kruse, P. Pracht,  : VdW corrections, initial TS optimization,
                  C. Bannwarth, S. Ehlert          DFT functionals, gCP, sTDA/sTD-DF
   Ed Valeev, F. Pavosevic, A. Kumar             : LibInt (2-el integral package), F12 methods
   Garnet Chan, S. Sharma, J. Yang, R. Olivares  : DMRG
   Ulf Ekstrom                                   : XCFun DFT Library
   Mihaly Kallay                                 : mrcc  (arbitrary order and MRCC methods)
   Jiri Pittner, Ondrej Demel                    : Mk-CCSD
   Frank Weinhold                                : gennbo (NPA and NBO analysis)
   Christopher J. Cramer and Donald G. Truhlar   : smd solvation model
   Lars Goerigk                                  : TD-DFT with DH, B97 family of functionals
   V. Asgeirsson, H. Jonsson                     : NEB implementation
   FAccTs GmbH                                   : IRC, NEB, NEB-TS, DLPNO-Multilevel, CI-OPT
                                                   MM, QMMM, 2- and 3-layer-ONIOM, Crystal-QMMM,
                                                   LR-CPCM, SF, NACMEs, symmetry and pop. for TD-DFT,
                                                   nearIR, NL-DFT gradient (VV10), updates on ESD,
                                                   ML-optimized integration grids
   S Lehtola, MJT Oliveira, MAL Marques          : LibXC Library
   Liviu Ungur et al                             : ANISO software


 Your calculation uses the libint2 library for the computation of 2-el integrals
 For citations please refer to: http://libint.valeyev.net

 Your ORCA version has been built with support for libXC version: 5.1.0
 For citations please refer to: https://tddft.org/programs/libxc/

 This ORCA versions uses:
   CBLAS   interface :  Fast vector & matrix operations
   LAPACKE interface :  Fast linear algebra routines
   SCALAPACK package :  Parallel linear algebra routines
   Shared memory     :  Shared parallel matrices
   BLAS/LAPACK       :  OpenBLAS 0.3.15  USE64BITINT DYNAMIC_ARCH NO_AFFINITY SkylakeX SINGLE_THREADED
        Core in use  :  SkylakeX
   Copyright (c) 2011-2014, The OpenBLAS Project


Your calculation utilizes the atom-pairwise dispersion correction
based on tight binding partial charges (D4)
Cite in your paper:
E.Caldeweyher, C.Bannwarth, S.Grimme, J.Chem.Phys., (2017), 147, 034112.
E.Caldeweyher, S.Ehlert, A.Hansen, H.Neugebauer, S.Grimme, J.Chem.Phys., (2018), in progress.
   

XCFun DFT library Copyright 2009-2010 Ulf Ekstrom and contributors.
See http://admol.org/xcfun for more information.
This is free software; see the source code for copying conditions.
There is ABSOLUTELY NO WARRANTY; not even for MERCHANTABILITY or FITNESS FOR A PARTICULAR PURPOSE.
For details see the documentation.
Scientific users of this library should cite U. Ekstrom, L. Visscher, R. Bast, A. J. Thorvaldsen and K. Ruud;
J.Chem.Theor.Comp. 2010, DOI: 10.1021/ct100117s
XCFun Version 0.99 

================================================================================

----- Orbital basis set information -----
Your calculation utilizes the basis: def2-TZVP
   F. Weigend and R. Ahlrichs, Phys. Chem. Chem. Phys. 7, 3297 (2005).

----- AuxJ basis set information -----
Your calculation utilizes the auxiliary basis: def2/J
   F. Weigend, Phys. Chem. Chem. Phys. 8, 1057 (2006).

================================================================================
                                        WARNINGS
                       Please study these warnings very carefully!
================================================================================


WARNING: Geometry Optimization
  ===> : Switching off AutoStart
         For restart on a previous wavefunction, please use MOREAD

INFO   : the flag for use of the SHARK integral package has been found!

================================================================================
                                       INPUT FILE
================================================================================
NAME = Single.inp
|  1> ! WB97X OPT FREQ def2-TZVP RIJCOSX CPCM(WATER) D4
|  2> %MAXCORE 6500
|  3> %PAL NPROCS 8 END
|  4> * xyz 2 1
|  5>   Ca     -8.672037     -1.234518     -3.151266
|  6>   N      -8.994892     -1.188535     -5.591974
|  7>   C     -10.176170     -0.267569     -5.701736
|  8>   C      -7.772114     -0.630205     -6.206336
|  9>   C      -9.259942     -2.574778     -6.038451
| 10>   H      -7.796686      0.452062     -6.118895
| 11>   H      -7.728393     -0.866726     -7.275274
| 12>   C      -6.473498     -1.100226     -5.573861
| 13>   H     -10.311102     -2.799136     -5.892720
| 14>   C      -8.474404     -3.642322     -5.296600
| 15>   H      -9.056496     -2.683621     -7.108219
| 16>   C     -10.606485      0.048548     -7.140198
| 17>   H     -11.322534      0.878987     -7.099391
| 18>   O     -11.182126     -1.086090     -7.748213
| 19>   H      -9.731625      0.400287     -7.697152
| 20>   C     -11.377351     -0.855425     -4.950376
| 21>   O     -10.970358     -1.236079     -3.628811
| 22>   H     -11.798583     -1.717470     -5.462746
| 23>   H     -12.150380     -0.087371     -4.890202
| 24>   C      -9.837105      1.104284     -5.079027
| 25>   H     -10.771930      1.624721     -4.866641
| 26>   H      -9.260565      1.720221     -5.771189
| 27>   O      -9.092967      0.935287     -3.869396
| 28>   H      -6.225741     -2.129225     -5.829736
| 29>   O      -6.568884     -0.977190     -4.142119
| 30>   H      -5.670611     -0.456219     -5.935930
| 31>   H      -7.413861     -3.646838     -5.544117
| 32>   H      -8.890881     -4.612952     -5.569993
| 33>   O      -8.624855     -3.443921     -3.878217
| 34>   H      -5.706115     -1.151847     -3.750745
| 35>   H      -8.356684     -4.243173     -3.413358
| 36>   H     -11.412892     -0.859587     -8.653442
| 37>   H      -8.854583      1.797363     -3.513156
| 38>   H     -11.709608     -1.649439     -3.171332
| 39> *
| 40> 
| 41>                          ****END OF INPUT****
================================================================================

                       *****************************
                       * Geometry Optimization Run *
                       *****************************

Geometry optimization settings:
Update method            Update   .... BFGS
Choice of coordinates    CoordSys .... Z-matrix Internals
Initial Hessian          InHess   .... Almoef's Model

Convergence Tolerances:
Energy Change            TolE     ....  5.0000e-06 Eh
Max. Gradient            TolMAXG  ....  3.0000e-04 Eh/bohr
RMS Gradient             TolRMSG  ....  1.0000e-04 Eh/bohr
Max. Displacement        TolMAXD  ....  4.0000e-03 bohr
RMS Displacement         TolRMSD  ....  2.0000e-03 bohr
Strict Convergence                ....  False
------------------------------------------------------------------------------
                        ORCA OPTIMIZATION COORDINATE SETUP
------------------------------------------------------------------------------

The optimization will be done in new redundant internal coordinates
Making redundant internal coordinates   ...  (new redundants) done
Evaluating the initial hessian          ...  (Almloef) done
Evaluating the coordinates              ...  done
Calculating the B-matrix                .... done
Calculating the G-matrix                .... done
Diagonalizing the G-matrix              .... done
The first mode is                       ....  161
The number of degrees of freedom        ....   96

    -----------------------------------------------------------------
                    Redundant Internal Coordinates


    -----------------------------------------------------------------
         Definition                    Initial Value    Approx d2E/dq
    -----------------------------------------------------------------
      1. B(N   1,Ca  0)                  2.4624         0.229691   
      2. B(C   2,N   1)                  1.5019         0.371003   
      3. B(C   3,N   1)                  1.4780         0.405083   
      4. B(C   4,N   1)                  1.4803         0.401625   
      5. B(H   5,C   3)                  1.0861         0.365334   
      6. B(H   6,C   3)                  1.0957         0.352683   
      7. B(C   7,C   3)                  1.5190         0.388986   
      8. B(H   8,C   4)                  1.0847         0.367219   
      9. B(C   9,C   4)                  1.5189         0.389120   
     10. B(H  10,C   4)                  1.0944         0.354368   
     11. B(C  11,C   2)                  1.5344         0.367633   
     12. B(H  12,C  11)                  1.0973         0.350599   
     13. B(O  13,C  11)                  1.4101         0.519720   
     14. B(H  14,C  11)                  1.0951         0.353384   
     15. B(C  15,C   2)                  1.5339         0.368215   
     16. B(O  16,C  15)                  1.4343         0.475638   
     17. B(O  16,Ca  0)                  2.3474         0.350430   
     18. B(H  17,C  15)                  1.0877         0.363162   
     19. B(H  18,C  15)                  1.0914         0.358284   
     20. B(C  19,C   2)                  1.5443         0.354520   
     21. B(H  20,C  19)                  1.0908         0.359034   
     22. B(H  21,C  19)                  1.0913         0.358427   
     23. B(O  22,C  19)                  1.4302         0.482746   
     24. B(O  22,Ca  0)                  2.3240         0.381909   
     25. B(H  23,C   7)                  1.0889         0.361563   
     26. B(O  24,C   7)                  1.4402         0.465388   
     27. B(O  24,Ca  0)                  2.3391         0.361329   
     28. B(H  25,C   7)                  1.0911         0.358668   
     29. B(H  26,C   9)                  1.0891         0.361355   
     30. B(H  27,C   9)                  1.0910         0.358756   
     31. B(O  28,Ca  0)                  2.3264         0.378546   
     32. B(O  28,C   9)                  1.4401         0.465573   
     33. B(H  29,O  24)                  0.9634         0.513591   
     34. B(H  30,O  28)                  0.9627         0.514803   
     35. B(H  31,O  13)                  0.9612         0.517579   
     36. B(H  32,O  22)                  0.9628         0.514709   
     37. B(H  33,O  16)                  0.9626         0.514969   
     38. A(O  24,Ca  0,O  28)           87.3563         0.477110   
     39. A(O  16,Ca  0,O  24)          142.5829         0.470389   
     40. A(N   1,Ca  0,O  22)           69.6675         0.439986   
     41. A(O  16,Ca  0,O  22)           76.1384         0.475201   
     42. A(O  16,Ca  0,O  28)           87.4585         0.474429   
     43. A(N   1,Ca  0,O  28)           73.1820         0.439284   
     44. A(N   1,Ca  0,O  16)           70.7311         0.433219   
     45. A(O  22,Ca  0,O  28)          142.5434         0.482006   
     46. A(N   1,Ca  0,O  24)           72.2994         0.435613   
     47. A(O  22,Ca  0,O  24)           85.9425         0.477888   
     48. A(C   2,N   1,C   3)          112.8737         0.363417   
     49. A(Ca  0,N   1,C   4)          107.7549         0.384351   
     50. A(Ca  0,N   1,C   3)          108.0954         0.384924   
     51. A(C   3,N   1,C   4)          112.1190         0.368388   
     52. A(Ca  0,N   1,C   2)          100.7787         0.379096   
     53. A(C   2,N   1,C   4)          114.2913         0.362885   
     54. A(C  15,C   2,C  19)          108.3528         0.359234   
     55. A(N   1,C   2,C  11)          114.5468         0.359685   
     56. A(C  11,C   2,C  19)          104.8680         0.359138   
     57. A(C  11,C   2,C  15)          108.5754         0.361465   
     58. A(N   1,C   2,C  15)          110.1886         0.359782   
     59. A(N   1,C   2,C  19)          110.0344         0.357469   
     60. A(N   1,C   3,H   5)          108.9209         0.327477   
     61. A(H   6,C   3,C   7)          107.7768         0.325366   
     62. A(H   5,C   3,C   7)          107.1074         0.327259   
     63. A(N   1,C   3,H   6)          110.9165         0.325582   
     64. A(N   1,C   3,C   7)          114.6665         0.368674   
     65. A(H   5,C   3,H   6)          107.1314         0.290548   
     66. A(H   8,C   4,C   9)          106.8698         0.327555   
     67. A(N   1,C   4,H   8)          109.0686         0.327292   
     68. A(N   1,C   4,H  10)          110.7742         0.325378   
     69. A(C   9,C   4,H  10)          108.1428         0.325639   
     70. A(N   1,C   4,C   9)          114.7255         0.368154   
     71. A(H   8,C   4,H  10)          106.9132         0.291001   
     72. A(H  23,C   7,H  25)          108.2020         0.290843   
     73. A(C   3,C   7,H  25)          107.9562         0.326268   
     74. A(H  23,C   7,O  24)          109.2330         0.334509   
     75. A(C   3,C   7,O  24)          109.3222         0.377598   
     76. A(C   3,C   7,H  23)          112.8976         0.326700   
     77. A(O  24,C   7,H  25)          109.1602         0.334063   
     78. A(H  26,C   9,H  27)          108.1254         0.290828   
     79. A(C   4,C   9,H  27)          107.7866         0.326299   
     80. A(C   4,C   9,H  26)          113.3000         0.326687   
     81. A(H  27,C   9,O  28)          109.2384         0.334099   
     82. A(H  26,C   9,O  28)          109.0362         0.334499   
     83. A(C   4,C   9,O  28)          109.2805         0.377647   
     84. A(O  13,C  11,H  14)          111.4239         0.339422   
     85. A(H  12,C  11,H  14)          107.2865         0.288769   
     86. A(C   2,C  11,H  14)          108.5974         0.322469   
     87. A(H  12,C  11,O  13)          111.0147         0.338974   
     88. A(C   2,C  11,O  13)          110.6672         0.381145   
     89. A(C   2,C  11,H  12)          107.7023         0.322052   
     90. A(C  11,O  13,H  31)          108.3277         0.358832   
     91. A(C   2,C  15,H  17)          112.1018         0.324000   
     92. A(C   2,C  15,O  16)          109.3199         0.375445   
     93. A(H  17,C  15,H  18)          108.0241         0.290995   
     94. A(O  16,C  15,H  18)          109.6922         0.335215   
     95. A(C   2,C  15,H  18)          108.1775         0.323282   
     96. A(O  16,C  15,H  17)          109.4875         0.335969   
     97. A(Ca  0,O  16,C  15)          117.7172         0.426666   
     98. A(Ca  0,O  16,H  33)          130.9575         0.385316   
     99. A(C  15,O  16,H  33)          109.5087         0.353170   
    100. A(H  21,C  19,O  22)          109.1631         0.336065   
    101. A(H  20,C  19,O  22)          109.7306         0.336160   
    102. A(C   2,C  19,O  22)          110.5069         0.373953   
    103. A(H  20,C  19,H  21)          107.8771         0.290492   
    104. A(C   2,C  19,H  21)          111.2014         0.321302   
    105. A(C   2,C  19,H  20)          108.3121         0.321391   
    106. A(Ca  0,O  22,C  19)          117.7691         0.434462   
    107. A(C  19,O  22,H  32)          109.6318         0.354028   
    108. A(Ca  0,O  22,H  32)          132.5962         0.391107   
    109. A(Ca  0,O  24,C   7)          118.1174         0.427342   
    110. A(C   7,O  24,H  29)          109.2127         0.351711   
    111. A(Ca  0,O  24,H  29)          127.8226         0.387196   
    112. A(C   9,O  28,H  30)          109.3969         0.351875   
    113. A(Ca  0,O  28,H  30)          130.0324         0.390515   
    114. A(Ca  0,O  28,C   9)          116.1507         0.430956   
    115. D(C   4,N   1,Ca  0,O  22)   -163.1442         0.001641   
    116. D(C   2,N   1,Ca  0,O  16)     38.7872         0.001641   
    117. D(C   4,N   1,Ca  0,O  24)    104.6175         0.001641   
    118. D(C   3,N   1,Ca  0,O  22)     75.4858         0.001641   
    119. D(C   3,N   1,Ca  0,O  16)    157.3732         0.001641   
    120. D(C   4,N   1,Ca  0,O  16)    -81.2568         0.001641   
    121. D(C   2,N   1,Ca  0,O  28)    132.0315         0.001641   
    122. D(C   2,N   1,Ca  0,O  22)    -43.1002         0.001641   
    123. D(C   3,N   1,Ca  0,O  28)   -109.3826         0.001641   
    124. D(C   4,N   1,Ca  0,O  28)     11.9875         0.001641   
    125. D(C   2,N   1,Ca  0,O  24)   -135.3385         0.001641   
    126. D(C   3,N   1,Ca  0,O  24)    -16.7525         0.001641   
    127. D(C  11,C   2,N   1,C   3)     61.7270         0.012624   
    128. D(C  11,C   2,N   1,Ca  0)    176.7813         0.012624   
    129. D(C  19,C   2,N   1,C   4)    174.2003         0.012624   
    130. D(C  19,C   2,N   1,C   3)    -56.0996         0.012624   
    131. D(C  11,C   2,N   1,C   4)    -67.9731         0.012624   
    132. D(C  15,C   2,N   1,C   4)     54.7828         0.012624   
    133. D(C  19,C   2,N   1,Ca  0)     58.9548         0.012624   
    134. D(C  15,C   2,N   1,Ca  0)    -60.4628         0.012624   
    135. D(C  15,C   2,N   1,C   3)   -175.5171         0.012624   
    136. D(C   7,C   3,N   1,C   4)    -78.4717         0.014992   
    137. D(H   6,C   3,N   1,C   2)    -86.9155         0.014992   
    138. D(H   6,C   3,N   1,C   4)     43.8848         0.014992   
    139. D(H   6,C   3,N   1,Ca  0)    162.5121         0.014992   
    140. D(C   7,C   3,N   1,Ca  0)     40.1556         0.014992   
    141. D(C   7,C   3,N   1,C   2)    150.7280         0.014992   
    142. D(H   5,C   3,N   1,C   4)    161.5540         0.014992   
    143. D(H   5,C   3,N   1,Ca  0)    -79.8187         0.014992   
    144. D(H   5,C   3,N   1,C   2)     30.7537         0.014992   
    145. D(H   8,C   4,N   1,Ca  0)     83.0064         0.014740   
    146. D(C   9,C   4,N   1,C   2)   -147.9071         0.014740   
    147. D(H  10,C   4,N   1,C   2)     89.3181         0.014740   
    148. D(H  10,C   4,N   1,Ca  0)   -159.5843         0.014740   
    149. D(C   9,C   4,N   1,C   3)     82.0188         0.014740   
    150. D(C   9,C   4,N   1,Ca  0)    -36.8094         0.014740   
    151. D(H   8,C   4,N   1,C   2)    -28.0913         0.014740   
    152. D(H  10,C   4,N   1,C   3)    -40.7560         0.014740   
    153. D(H   8,C   4,N   1,C   3)   -158.1654         0.014740   
    154. D(H  25,C   7,C   3,H   6)     69.3259         0.012032   
    155. D(H  25,C   7,C   3,N   1)   -166.6326         0.012032   
    156. D(O  24,C   7,C   3,H   5)     72.9796         0.012032   
    157. D(O  24,C   7,C   3,N   1)    -47.9968         0.012032   
    158. D(H  23,C   7,C   3,H   6)    -50.2336         0.012032   
    159. D(O  24,C   7,C   3,H   6)   -172.0383         0.012032   
    160. D(H  25,C   7,C   3,H   5)    -45.6561         0.012032   
    161. D(H  23,C   7,C   3,H   5)   -165.2156         0.012032   
    162. D(H  23,C   7,C   3,N   1)     73.8079         0.012032   
    163. D(O  28,C   9,C   4,N   1)     50.4883         0.012040   
    164. D(H  27,C   9,C   4,H   8)     48.0667         0.012040   
    165. D(H  27,C   9,C   4,N   1)    169.0969         0.012040   
    166. D(O  28,C   9,C   4,H  10)    174.6691         0.012040   
    167. D(H  27,C   9,C   4,H  10)    -66.7222         0.012040   
    168. D(O  28,C   9,C   4,H   8)    -70.5419         0.012040   
    169. D(H  26,C   9,C   4,H  10)     52.8741         0.012040   
    170. D(H  26,C   9,C   4,N   1)    -71.3067         0.012040   
    171. D(H  26,C   9,C   4,H   8)    167.6631         0.012040   
    172. D(O  13,C  11,C   2,N   1)     70.2609         0.010813   
    173. D(O  13,C  11,C   2,C  15)    -53.3627         0.010813   
    174. D(H  12,C  11,C   2,C  19)    -47.4990         0.010813   
    175. D(H  12,C  11,C   2,C  15)     68.1524         0.010813   
    176. D(H  12,C  11,C   2,N   1)   -168.2240         0.010813   
    177. D(O  13,C  11,C   2,C  19)   -169.0142         0.010813   
    178. D(H  14,C  11,C   2,C  19)     68.3822         0.010813   
    179. D(H  14,C  11,C   2,C  15)   -175.9663         0.010813   
    180. D(H  14,C  11,C   2,N   1)    -52.3428         0.010813   
    181. D(H  31,O  13,C  11,H  14)    -57.2773         0.021414   
    182. D(H  31,O  13,C  11,H  12)     62.2399         0.021414   
    183. D(H  31,O  13,C  11,C   2)   -178.2188         0.021414   
    184. D(H  18,C  15,C   2,C  19)     49.1254         0.010845   
    185. D(H  18,C  15,C   2,C  11)    -64.2457         0.010845   
    186. D(H  18,C  15,C   2,N   1)    169.5599         0.010845   
    187. D(H  17,C  15,C   2,C  19)    168.1273         0.010845   
    188. D(H  17,C  15,C   2,C  11)     54.7562         0.010845   
    189. D(H  17,C  15,C   2,N   1)    -71.4382         0.010845   
    190. D(O  16,C  15,C   2,C  19)    -70.2773         0.010845   
    191. D(O  16,C  15,C   2,N   1)     50.1572         0.010845   
    192. D(O  16,C  15,C   2,C  11)    176.3515         0.010845   
    193. D(H  33,O  16,C  15,H  18)     64.6130         0.019341   
    194. D(H  33,O  16,C  15,C   2)   -176.9243         0.019341   
    195. D(Ca  0,O  16,C  15,H  18)   -129.0493         0.019341   
    196. D(Ca  0,O  16,C  15,H  17)    112.5745         0.019341   
    197. D(Ca  0,O  16,C  15,C   2)    -10.5867         0.019341   
    198. D(H  33,O  16,Ca  0,O  28)     73.4689         0.001797   
    199. D(H  33,O  16,Ca  0,O  24)    155.7678         0.001797   
    200. D(H  33,O  16,Ca  0,O  22)   -140.4956         0.001797   
    201. D(H  33,O  16,Ca  0,N   1)    146.5339         0.001797   
    202. D(C  15,O  16,Ca  0,O  28)    -89.3850         0.001797   
    203. D(C  15,O  16,Ca  0,O  24)     -7.0861         0.001797   
    204. D(H  33,O  16,C  15,H  17)    -53.7631         0.019341   
    205. D(C  15,O  16,Ca  0,O  22)     56.6505         0.001797   
    206. D(C  15,O  16,Ca  0,N   1)    -16.3200         0.001797   
    207. D(O  22,C  19,C   2,C  15)     79.4717         0.010106   
    208. D(O  22,C  19,C   2,C  11)   -164.7226         0.010106   
    209. D(O  22,C  19,C   2,N   1)    -41.0587         0.010106   
    210. D(H  21,C  19,C   2,C  15)   -159.1293         0.010106   
    211. D(H  21,C  19,C   2,C  11)    -43.3236         0.010106   
    212. D(H  21,C  19,C   2,N   1)     80.3403         0.010106   
    213. D(H  20,C  19,C   2,C  15)    -40.7567         0.010106   
    214. D(H  20,C  19,C   2,C  11)     75.0489         0.010106   
    215. D(H  20,C  19,C   2,N   1)   -161.2872         0.010106   
    216. D(H  32,O  22,C  19,H  21)     54.8816         0.019940   
    217. D(H  32,O  22,C  19,H  20)    -63.1456         0.019940   
    218. D(H  32,O  22,C  19,C   2)    177.4798         0.019940   
    219. D(Ca  0,O  22,C  19,H  21)   -124.5780         0.019940   
    220. D(Ca  0,O  22,C  19,H  20)    117.3947         0.019940   
    221. D(Ca  0,O  22,C  19,C   2)     -1.9799         0.019940   
    222. D(H  32,O  22,Ca  0,O  28)   -161.1631         0.001851   
    223. D(H  32,O  22,Ca  0,O  24)    -80.8707         0.001851   
    224. D(H  32,O  22,Ca  0,O  16)    132.2399         0.001851   
    225. D(H  32,O  22,Ca  0,N   1)   -153.4867         0.001851   
    226. D(C  19,O  22,Ca  0,O  28)     18.1456         0.001851   
    227. D(C  19,O  22,Ca  0,O  24)     98.4379         0.001851   
    228. D(C  19,O  22,Ca  0,O  16)    -48.4515         0.001851   
    229. D(C  19,O  22,Ca  0,N   1)     25.8219         0.001851   
    230. D(Ca  0,O  24,C   7,H  25)    148.7792         0.018497   
    231. D(Ca  0,O  24,C   7,H  23)    -93.0920         0.018497   
    232. D(Ca  0,O  24,C   7,C   3)     30.8954         0.018497   
    233. D(H  29,O  24,Ca  0,O  28)    -87.4495         0.001815   
    234. D(H  29,O  24,Ca  0,O  22)    129.4270         0.001815   
    235. D(H  29,O  24,Ca  0,O  16)   -169.7826         0.001815   
    236. D(H  29,O  24,Ca  0,N   1)   -160.6336         0.001815   
    237. D(C   7,O  24,Ca  0,O  28)     65.0687         0.001815   
    238. D(C   7,O  24,Ca  0,O  22)    -78.0549         0.001815   
    239. D(C   7,O  24,Ca  0,O  16)    -17.2644         0.001815   
    240. D(H  29,O  24,C   7,C   3)   -171.8116         0.018497   
    241. D(C   7,O  24,Ca  0,N   1)     -8.1154         0.001815   
    242. D(H  29,O  24,C   7,H  25)    -53.9279         0.018497   
    243. D(H  29,O  24,C   7,H  23)     64.2010         0.018497   
    244. D(H  30,O  28,C   9,H  26)    -72.1520         0.018512   
    245. D(H  30,O  28,C   9,C   4)    163.5160         0.018512   
    246. D(Ca  0,O  28,C   9,H  27)   -155.3458         0.018512   
    247. D(Ca  0,O  28,C   9,H  26)     86.6866         0.018512   
    248. D(Ca  0,O  28,C   9,C   4)    -37.6455         0.018512   
    249. D(H  30,O  28,Ca  0,O  24)     95.6337         0.001845   
    250. D(H  30,O  28,Ca  0,O  22)    175.4538         0.001845   
    251. D(H  30,O  28,Ca  0,O  16)   -121.4352         0.001845   
    252. D(H  30,O  28,Ca  0,N   1)    167.9351         0.001845   
    253. D(C   9,O  28,Ca  0,O  24)    -57.9614         0.001845   
    254. D(C   9,O  28,Ca  0,O  22)     21.8588         0.001845   
    255. D(C   9,O  28,Ca  0,O  16)     84.9698         0.001845   
    256. D(H  30,O  28,C   9,H  27)     45.8157         0.018512   
    257. D(C   9,O  28,Ca  0,N   1)     14.3400         0.001845   
    -----------------------------------------------------------------

Number of atoms                         .... 34
Number of degrees of freedom            .... 257

         *************************************************************
         *                GEOMETRY OPTIMIZATION CYCLE   1            *
         *************************************************************
---------------------------------
CARTESIAN COORDINATES (ANGSTROEM)
---------------------------------
  Ca    -8.672037   -1.234518   -3.151266
  N     -8.994892   -1.188535   -5.591974
  C    -10.176170   -0.267569   -5.701736
  C     -7.772114   -0.630205   -6.206336
  C     -9.259942   -2.574778   -6.038451
  H     -7.796686    0.452062   -6.118895
  H     -7.728393   -0.866726   -7.275274
  C     -6.473498   -1.100226   -5.573861
  H    -10.311102   -2.799136   -5.892720
  C     -8.474404   -3.642322   -5.296600
  H     -9.056496   -2.683621   -7.108219
  C    -10.606485    0.048548   -7.140198
  H    -11.322534    0.878987   -7.099391
  O    -11.182126   -1.086090   -7.748213
  H     -9.731625    0.400287   -7.697152
  C    -11.377351   -0.855425   -4.950376
  O    -10.970358   -1.236079   -3.628811
  H    -11.798583   -1.717470   -5.462746
  H    -12.150380   -0.087371   -4.890202
  C     -9.837105    1.104284   -5.079027
  H    -10.771930    1.624721   -4.866641
  H     -9.260565    1.720221   -5.771189
  O     -9.092967    0.935287   -3.869396
  H     -6.225741   -2.129225   -5.829736
  O     -6.568884   -0.977190   -4.142119
  H     -5.670611   -0.456219   -5.935930
  H     -7.413861   -3.646838   -5.544117
  H     -8.890881   -4.612952   -5.569993
  O     -8.624855   -3.443921   -3.878217
  H     -5.706115   -1.151847   -3.750745
  H     -8.356684   -4.243173   -3.413358
  H    -11.412892   -0.859587   -8.653442
  H     -8.854583    1.797363   -3.513156
  H    -11.709608   -1.649439   -3.171332

----------------------------
CARTESIAN COORDINATES (A.U.)
----------------------------
  NO LB      ZA    FRAG     MASS         X           Y           Z
   0 Ca   20.0000    0    40.080  -16.387775   -2.332901   -5.955030
   1 N     7.0000    0    14.007  -16.997882   -2.246006  -10.567299
   2 C     6.0000    0    12.011  -19.230174   -0.505632  -10.774720
   3 C     6.0000    0    12.011  -14.687167   -1.190915  -11.728275
   4 C     6.0000    0    12.011  -17.498754   -4.865625  -11.411019
   5 H     1.0000    0     1.008  -14.733601    0.854273  -11.563036
   6 H     1.0000    0     1.008  -14.604546   -1.637875  -13.748275
   7 C     6.0000    0    12.011  -12.233138   -2.079126  -10.533071
   8 H     1.0000    0     1.008  -19.485159   -5.289600  -11.135627
   9 C     6.0000    0    12.011  -16.014303   -6.882991  -10.009123
  10 H     1.0000    0     1.008  -17.114297   -5.071309  -13.432587
  11 C     6.0000    0    12.011  -20.043352    0.091742  -13.493019
  12 H     1.0000    0     1.008  -21.396488    1.661045  -13.415905
  13 O     8.0000    0    15.999  -21.131156   -2.052413  -14.642001
  14 H     1.0000    0     1.008  -18.390106    0.756433  -14.545509
  15 C     6.0000    0    12.011  -21.500078   -1.616519   -9.354855
  16 O     8.0000    0    15.999  -20.730972   -2.335851   -6.857459
  17 H     1.0000    0     1.008  -22.296091   -3.245548  -10.323094
  18 H     1.0000    0     1.008  -22.960891   -0.165107   -9.241143
  19 C     6.0000    0    12.011  -18.589434    2.086794   -9.597970
  20 H     1.0000    0     1.008  -20.355998    3.070278   -9.196619
  21 H     1.0000    0     1.008  -17.499932    3.250747  -10.905967
  22 O     8.0000    0    15.999  -17.183217    1.767436   -7.312099
  23 H     1.0000    0     1.008  -11.764945   -4.023652  -11.016604
  24 O     8.0000    0    15.999  -12.413392   -1.846621   -7.827471
  25 H     1.0000    0     1.008  -10.715902   -0.862129  -11.217282
  26 H     1.0000    0     1.008  -14.010167   -6.891525  -10.476863
  27 H     1.0000    0     1.008  -16.801330   -8.717216  -10.525761
  28 O     8.0000    0    15.999  -16.298614   -6.508068   -7.328768
  29 H     1.0000    0     1.008  -10.782995   -2.176675   -7.087881
  30 H     1.0000    0     1.008  -15.791844   -8.018435   -6.450312
  31 H     1.0000    0     1.008  -21.567240   -1.624384  -16.352635
  32 H     1.0000    0     1.008  -16.732737    3.396524   -6.638903
  33 H     1.0000    0     1.008  -22.127952   -3.116988   -5.992949

--------------------------------
INTERNAL COORDINATES (ANGSTROEM)
--------------------------------
 Ca     0   0   0     0.000000000000     0.00000000     0.00000000
 N      1   0   0     2.462398287966     0.00000000     0.00000000
 C      2   1   0     1.501880082791   100.77868713     0.00000000
 C      2   1   3     1.477957744060   108.09537578   118.58597025
 C      2   1   3     1.480291481121   107.75492221   239.95600337
 H      4   2   1     1.086071623308   108.92089327   280.18133429
 H      4   2   1     1.095665166520   110.91653860   162.51210514
 C      4   2   1     1.518995681864   114.66649938    40.15558349
 H      5   2   1     1.084671093984   109.06860109    83.00635978
 C      5   2   1     1.518901921646   114.72551226   323.19062757
 H      5   2   1     1.094367692957   110.77423684   200.41573633
 C      3   2   1     1.534364325171   114.54676088   176.78134385
 H     12   3   2     1.097278594693   107.70233947   191.77600082
 O     12   3   2     1.410123466988   110.66721215    70.26086943
 H     12   3   2     1.095124696935   108.59743375   307.65720714
 C      3   2   1     1.533933610394   110.18860376   299.53722657
 O     16   3   2     1.434250612337   109.31992245    50.15720891
 H     16   3   2     1.087695268331   112.10176532   288.56184780
 H     16   3   2     1.091376054361   108.17750392   169.55993575
 C      3   2   1     1.544251348232   110.03443166    58.95476500
 H     20   3   2     1.090807161963   108.31207899   198.71282389
 H     20   3   2     1.091267608707   111.20136413    80.34026191
 O     20   3   2     1.430212748235   110.50690776   318.94129316
 H      8   4   2     1.088895995343   112.89758477    73.80789571
 O      8   4   2     1.440181065303   109.32217185   312.00317818
 H      8   4   2     1.091085015743   107.95620854   193.36741816
 H     10   5   2     1.089053035620   113.29998850   288.69328627
 H     10   5   2     1.091017607960   107.78664677   169.09691254
 O     10   5   2     1.440072496401   109.28052870    50.48829597
 H     25   8   4     0.963353010524   109.21272212   188.18838417
 H     29  10   5     0.962711449307   109.39690936   163.51596444
 H     14  12   3     0.961247157710   108.32772411   181.78121047
 H     23  20   3     0.962761080867   109.63181339   177.47976880
 H     17  16   3     0.962623544040   109.50869760   183.07566556

---------------------------
INTERNAL COORDINATES (A.U.)
---------------------------
 Ca     0   0   0     0.000000000000     0.00000000     0.00000000
 N      1   0   0     4.653258396892     0.00000000     0.00000000
 C      2   1   0     2.838142042466   100.77868713     0.00000000
 C      2   1   3     2.792935373782   108.09537578   118.58597025
 C      2   1   3     2.797345497694   107.75492221   239.95600337
 H      4   2   1     2.052377929875   108.92089327   280.18133429
 H      4   2   1     2.070507099201   110.91653860   162.51210514
 C      4   2   1     2.870485837332   114.66649938    40.15558349
 H      5   2   1     2.049731313011   109.06860109    83.00635978
 C      5   2   1     2.870308656198   114.72551226   323.19062757
 H      5   2   1     2.068055229501   110.77423684   200.41573633
 C      3   2   1     2.899528364232   114.54676088   176.78134385
 H     12   3   2     2.073556036583   107.70233947   191.77600082
 O     12   3   2     2.664747167623   110.66721215    70.26086943
 H     12   3   2     2.069485759701   108.59743375   307.65720714
 C      3   2   1     2.898714431262   110.18860376   299.53722657
 O     16   3   2     2.710340864726   109.31992245    50.15720891
 H     16   3   2     2.055446174307   112.10176532   288.56184780
 H     16   3   2     2.062401851862   108.17750392   169.55993575
 C      3   2   1     2.918212130096   110.03443166    58.95476500
 H     20   3   2     2.061326801030   108.31207899   198.71282389
 H     20   3   2     2.062196919275   111.20136413    80.34026191
 O     20   3   2     2.702710407407   110.50690776   318.94129316
 H      8   4   2     2.057715219523   112.89758477    73.80789571
 O      8   4   2     2.721547796681   109.32217185   312.00317818
 H      8   4   2     2.061851868580   107.95620854   193.36741816
 H     10   5   2     2.058011982638   113.29998850   288.69328627
 H     10   5   2     2.061724486330   107.78664677   169.09691254
 O     10   5   2     2.721342631190   109.28052870    50.48829597
 H     25   8   4     1.820473360179   109.21272212   188.18838417
 H     29  10   5     1.819260985180   109.39690936   163.51596444
 H     14  12   3     1.816493875083   108.32772411   181.78121047
 H     23  20   3     1.819354775236   109.63181339   177.47976880
 H     17  16   3     1.819094868301   109.50869760   183.07566556

---------------------
BASIS SET INFORMATION
---------------------
There are 5 groups of distinct atoms

 Group   1 Type Ca  : 17s12p4d contracted to 6s5p3d pattern {842111/63111/211}
 Group   2 Type N   : 11s6p2d1f contracted to 5s3p2d1f pattern {62111/411/11/1}
 Group   3 Type C   : 11s6p2d1f contracted to 5s3p2d1f pattern {62111/411/11/1}
 Group   4 Type H   : 5s1p contracted to 3s1p pattern {311/1}
 Group   5 Type O   : 11s6p2d1f contracted to 5s3p2d1f pattern {62111/411/11/1}

Atom   0Ca   basis set group =>   1
Atom   1N    basis set group =>   2
Atom   2C    basis set group =>   3
Atom   3C    basis set group =>   3
Atom   4C    basis set group =>   3
Atom   5H    basis set group =>   4
Atom   6H    basis set group =>   4
Atom   7C    basis set group =>   3
Atom   8H    basis set group =>   4
Atom   9C    basis set group =>   3
Atom  10H    basis set group =>   4
Atom  11C    basis set group =>   3
Atom  12H    basis set group =>   4
Atom  13O    basis set group =>   5
Atom  14H    basis set group =>   4
Atom  15C    basis set group =>   3
Atom  16O    basis set group =>   5
Atom  17H    basis set group =>   4
Atom  18H    basis set group =>   4
Atom  19C    basis set group =>   3
Atom  20H    basis set group =>   4
Atom  21H    basis set group =>   4
Atom  22O    basis set group =>   5
Atom  23H    basis set group =>   4
Atom  24O    basis set group =>   5
Atom  25H    basis set group =>   4
Atom  26H    basis set group =>   4
Atom  27H    basis set group =>   4
Atom  28O    basis set group =>   5
Atom  29H    basis set group =>   4
Atom  30H    basis set group =>   4
Atom  31H    basis set group =>   4
Atom  32H    basis set group =>   4
Atom  33H    basis set group =>   4
---------------------------------
AUXILIARY/J BASIS SET INFORMATION
---------------------------------
There are 5 groups of distinct atoms

 Group   1 Type Ca  : 19s5p5d3f1g contracted to 8s4p4d1f1g pattern {121111111/2111/2111/3/1}
 Group   2 Type N   : 12s5p4d2f1g contracted to 6s4p3d1f1g pattern {711111/2111/211/2/1}
 Group   3 Type C   : 12s5p4d2f1g contracted to 6s4p3d1f1g pattern {711111/2111/211/2/1}
 Group   4 Type H   : 5s2p1d contracted to 3s1p1d pattern {311/2/1}
 Group   5 Type O   : 12s5p4d2f1g contracted to 6s4p3d1f1g pattern {711111/2111/211/2/1}

Atom   0Ca   basis set group =>   1
Atom   1N    basis set group =>   2
Atom   2C    basis set group =>   3
Atom   3C    basis set group =>   3
Atom   4C    basis set group =>   3
Atom   5H    basis set group =>   4
Atom   6H    basis set group =>   4
Atom   7C    basis set group =>   3
Atom   8H    basis set group =>   4
Atom   9C    basis set group =>   3
Atom  10H    basis set group =>   4
Atom  11C    basis set group =>   3
Atom  12H    basis set group =>   4
Atom  13O    basis set group =>   5
Atom  14H    basis set group =>   4
Atom  15C    basis set group =>   3
Atom  16O    basis set group =>   5
Atom  17H    basis set group =>   4
Atom  18H    basis set group =>   4
Atom  19C    basis set group =>   3
Atom  20H    basis set group =>   4
Atom  21H    basis set group =>   4
Atom  22O    basis set group =>   5
Atom  23H    basis set group =>   4
Atom  24O    basis set group =>   5
Atom  25H    basis set group =>   4
Atom  26H    basis set group =>   4
Atom  27H    basis set group =>   4
Atom  28O    basis set group =>   5
Atom  29H    basis set group =>   4
Atom  30H    basis set group =>   4
Atom  31H    basis set group =>   4
Atom  32H    basis set group =>   4
Atom  33H    basis set group =>   4


           ************************************************************
           *        Program running with 8 parallel MPI-processes     *
           *              working on a common directory               *
           ************************************************************
------------------------------------------------------------------------------
                           ORCA GTO INTEGRAL CALCULATION
                           -- RI-GTO INTEGRALS CHOSEN --
------------------------------------------------------------------------------
------------------------------------------------------------------------------
                   ___                                                        
                  /   \      - P O W E R E D   B Y -                         
                 /     \                                                     
                 |  |  |   _    _      __       _____    __    __             
                 |  |  |  | |  | |    /  \     |  _  \  |  |  /  |          
                  \  \/   | |  | |   /    \    | | | |  |  | /  /          
                 / \  \   | |__| |  /  /\  \   | |_| |  |  |/  /          
                |  |  |   |  __  | /  /__\  \  |    /   |      \           
                |  |  |   | |  | | |   __   |  |    \   |  |\   \          
                \     /   | |  | | |  |  |  |  | |\  \  |  | \   \       
                 \___/    |_|  |_| |__|  |__|  |_| \__\ |__|  \__/        
                                                                              
                      - O R C A' S   B I G   F R I E N D -                    
                                      &                                       
                       - I N T E G R A L  F E E D E R -                       
                                                                              
 v1 FN, 2020, v2 2021                                                         
------------------------------------------------------------------------------


Reading SHARK input file Single.SHARKINP.tmp ... ok
----------------------
SHARK INTEGRAL PACKAGE
----------------------

Number of atoms                             ...     34
Number of basis functions                   ...    584
Number of shells                            ...    244
Maximum angular momentum                    ...      3
Integral batch strategy                     ... SHARK/LIBINT Hybrid
RI-J (if used) integral strategy            ... SPLIT-RIJ (Revised 2003 algorithm where possible)
Printlevel                                  ...      1
Contraction scheme used                     ... SEGMENTED contraction
Coulomb Range Separation                    ... NOT USED
Exchange Range Separation                   ... Long Range
   Mu parameter                             ...  0.300000
   Scaling (regular/separated)              ...  0.157706  0.842294
Finite Nucleus Model                        ... NOT USED
Auxiliary Coulomb fitting basis             ... AVAILABLE
   # of basis functions in Aux-J            ...    951
   # of shells in Aux-J                     ...    323
   Maximum angular momentum in Aux-J        ...      4
Auxiliary J/K fitting basis                 ... NOT available
Auxiliary Correlation fitting basis         ... NOT available
Auxiliary 'external' fitting basis          ... NOT available
Integral threshold                          ...     2.500000e-11
Primitive cut-off                           ...     2.500000e-12
Primitive pair pre-selection threshold      ...     2.500000e-12

Calculating pre-screening integrals         ... done (  0.1 sec) Dimension = 244
Organizing shell pair data                  ... done (  0.2 sec)
Shell pair information
Total number of shell pairs                 ...     29890
Shell pairs after pre-screening             ...     25273
Total number of primitive shell pairs       ...     91797
Primitive shell pairs kept                  ...     53478
          la=0 lb=0:   7311 shell pairs
          la=1 lb=0:   7460 shell pairs
          la=1 lb=1:   1970 shell pairs
          la=2 lb=0:   3474 shell pairs
          la=2 lb=1:   1817 shell pairs
          la=2 lb=2:    438 shell pairs
          la=3 lb=0:   1518 shell pairs
          la=3 lb=1:    808 shell pairs
          la=3 lb=2:    385 shell pairs
          la=3 lb=3:     92 shell pairs

Calculating one electron integrals          ... done (  0.0 sec)
Calculating RI/J V-Matrix + Cholesky decomp.... done (  0.0 sec)
Calculating Nuclear repulsion               ... done (  0.0 sec) ENN=   1496.711772372579 Eh

SHARK setup successfully completed in   0.7 seconds

Maximum memory used throughout the entire GTOINT-calculation: 40.0 MB


           ************************************************************
           *        Program running with 8 parallel MPI-processes     *
           *              working on a common directory               *
           ************************************************************
-------------------------------------------------------------------------------
                                 ORCA SCF
-------------------------------------------------------------------------------

------------
SCF SETTINGS
------------
Hamiltonian:
 Density Functional     Method          .... DFT(GTOs)
 Exchange Functional    Exchange        .... WB97X
 Correlation Functional Correlation     .... WB97X
 Gradients option       PostSCFGGA      .... off
 Hybrid DFT is turned on
   Fraction HF Exchange ScalHFX         ....  0.157706
   Scaling of DF-GGA-X  ScalDFX         ....  0.000000
   Scaling of DF-GGA-C  ScalDFC         ....  1.000000
   Scaling of DF-LDA-C  ScalLDAC        ....  1.000000
   Perturbative correction              ....  0.000000
   Density functional embedding theory  .... OFF
 Long-range corrected/Screened/Range-Separated Hybrid DFT is turned on
   Amount of maximum screened exact exchange              ....  0.842294
   Range separation parameter mu (erf(mu*r12)/r12)        ....  0.300000
 RI-approximation to the Coulomb term is turned on
   Number of AuxJ basis functions       .... 951
   RIJ-COSX (HFX calculated with COS-X)).... on


General Settings:
 Integral files         IntName         .... Single
 Hartree-Fock type      HFTyp           .... RHF
 Total Charge           Charge          ....    2
 Multiplicity           Mult            ....    1
 Number of Electrons    NEL             ....  132
 Basis Dimension        Dim             ....  584
 Nuclear Repulsion      ENuc            ....   1496.7117723726 Eh

Convergence Acceleration:
 DIIS                   CNVDIIS         .... on
   Start iteration      DIISMaxIt       ....    12
   Startup error        DIISStart       ....  0.200000
   # of expansion vecs  DIISMaxEq       ....     5
   Bias factor          DIISBfac        ....   1.050
   Max. coefficient     DIISMaxC        ....  10.000
 Trust-Rad. Augm. Hess. CNVTRAH         .... auto
   Auto Start mean grad. ratio tolernc. ....  1.125000
   Auto Start start iteration           ....    20
   Auto Start num. interpolation iter.  ....    10
   Max. Number of Micro iterations      ....    16
   Max. Number of Macro iterations      .... Maxiter - #DIIS iter
   Number of Davidson start vectors     ....     2
   Converg. threshold I  (grad. norm)   ....   1.000e-05
   Converg. threshold II (energy diff.) ....   1.000e-08
   Grad. Scal. Fac. for Micro threshold ....   0.100
   Minimum threshold for Micro iter.    ....   0.010
   NR start threshold (gradient norm)   ....   0.001
   Initial trust radius                 ....   0.400
   Minimum AH scaling param. (alpha)    ....   1.000
   Maximum AH scaling param. (alpha)    .... 1000.000
   Orbital update algorithm             .... Taylor
   White noise on init. David. guess    .... on
   Maximum white noise                  ....   0.010
   Quad. conv. algorithm                .... NR
 SOSCF                  CNVSOSCF        .... on
   Start iteration      SOSCFMaxIt      ....   150
   Startup grad/error   SOSCFStart      ....  0.003300
 Level Shifting         CNVShift        .... on
   Level shift para.    LevelShift      ....    0.2500
   Turn off err/grad.   ShiftErr        ....    0.0010
 Zerner damping         CNVZerner       .... off
 Static damping         CNVDamp         .... on
   Fraction old density DampFac         ....    0.7000
   Max. Damping (<1)    DampMax         ....    0.9800
   Min. Damping (>=0)   DampMin         ....    0.0000
   Turn off err/grad.   DampErr         ....    0.1000
 Fernandez-Rico         CNVRico         .... off

SCF Procedure:
 Maximum # iterations   MaxIter         ....   125
 SCF integral mode      SCFMode         .... Direct
   Integral package                     .... SHARK and LIBINT hybrid scheme
 Reset frequency        DirectResetFreq ....    20
 Integral Threshold     Thresh          ....  2.500e-11 Eh
 Primitive CutOff       TCut            ....  2.500e-12 Eh

Convergence Tolerance:
 Convergence Check Mode ConvCheckMode   .... Total+1el-Energy
 Convergence forced     ConvForced      .... 0
 Energy Change          TolE            ....  1.000e-08 Eh
 1-El. energy change                    ....  1.000e-05 Eh
 Orbital Gradient       TolG            ....  1.000e-05
 Orbital Rotation angle TolX            ....  1.000e-05
 DIIS Error             TolErr          ....  5.000e-07


Diagonalization of the overlap matrix:
Smallest eigenvalue                        ... 7.630e-05
Time for diagonalization                   ...    0.053 sec
Threshold for overlap eigenvalues          ... 1.000e-08
Number of eigenvalues below threshold      ... 0
Time for construction of square roots      ...    0.028 sec
Total time needed                          ...    0.084 sec

Time for model grid setup =    0.233 sec

------------------------------
INITIAL GUESS: MODEL POTENTIAL
------------------------------
Loading Hartree-Fock densities                     ... done
Calculating cut-offs                               ... done
Initializing the effective Hamiltonian             ... done
Setting up the integral package (SHARK)            ... done
Starting the Coulomb interaction                   ... done (   0.4 sec)
Reading the grid                                   ... done
Mapping shells                                     ... done
Starting the XC term evaluation                    ... done (   0.3 sec)
  promolecular density results
     # of electrons  =    134.000055561
     EX              =   -129.127656467
     EC              =     -4.667501568
     EX+EC           =   -133.795158034
Transforming the Hamiltonian                       ... done (   0.0 sec)
Diagonalizing the Hamiltonian                      ... done (   0.1 sec)
Back transforming the eigenvectors                 ... done (   0.0 sec)
Now organizing SCF variables                       ... done
                      ------------------
                      INITIAL GUESS DONE (   1.1 sec)
                      ------------------
-------------------
DFT GRID GENERATION
-------------------

General Integration Accuracy     IntAcc      ... 4.388
Radial Grid Type                 RadialGrid  ... OptM3 with GC (2021)
Angular Grid (max. ang.)         AngularGrid ... 4 (Lebedev-302)
Angular grid pruning method      GridPruning ... 4 (adaptive)
Weight generation scheme         WeightScheme... Becke
Basis function cutoff            BFCut       ... 1.0000e-11
Integration weight cutoff        WCut        ... 1.0000e-14
Angular grids for H and He will be reduced by one unit
Partially contracted basis set               ... off
Rotationally invariant grid construction     ... off

Total number of grid points                  ...   153902
Total number of batches                      ...     2423
Average number of points per batch           ...       63
Average number of grid points per atom       ...     4527
Time for grid setup =    0.974 sec

--------------------
COSX GRID GENERATION
--------------------

GRIDX 1
-------
General Integration Accuracy     IntAcc      ... 3.816
Radial Grid Type                 RadialGrid  ... OptM3 with GC (2021)
Angular Grid (max. ang.)         AngularGrid ... 1 (Lebedev-50)
Angular grid pruning method      GridPruning ... 4 (adaptive)
Weight generation scheme         WeightScheme... Becke
Basis function cutoff            BFCut       ... 1.0000e-11
Integration weight cutoff        WCut        ... 1.0000e-14
Angular grids for H and He will be reduced by one unit
Partially contracted basis set               ... on
Rotationally invariant grid construction     ... off

Total number of grid points                  ...    19404
Total number of batches                      ...      320
Average number of points per batch           ...       60
Average number of grid points per atom       ...      571
UseSFitting                                  ... on

GRIDX 2
-------
General Integration Accuracy     IntAcc      ... 4.020
Radial Grid Type                 RadialGrid  ... OptM3 with GC (2021)
Angular Grid (max. ang.)         AngularGrid ... 2 (Lebedev-110)
Angular grid pruning method      GridPruning ... 4 (adaptive)
Weight generation scheme         WeightScheme... Becke
Basis function cutoff            BFCut       ... 1.0000e-11
Integration weight cutoff        WCut        ... 1.0000e-14
Angular grids for H and He will be reduced by one unit
Partially contracted basis set               ... on
Rotationally invariant grid construction     ... off

Total number of grid points                  ...    40633
Total number of batches                      ...      651
Average number of points per batch           ...       62
Average number of grid points per atom       ...     1195
UseSFitting                                  ... on

GRIDX 3
-------
General Integration Accuracy     IntAcc      ... 4.338
Radial Grid Type                 RadialGrid  ... OptM3 with GC (2021)
Angular Grid (max. ang.)         AngularGrid ... 3 (Lebedev-194)
Angular grid pruning method      GridPruning ... 4 (adaptive)
Weight generation scheme         WeightScheme... Becke
Basis function cutoff            BFCut       ... 1.0000e-11
Integration weight cutoff        WCut        ... 1.0000e-14
Angular grids for H and He will be reduced by one unit
Partially contracted basis set               ... on
Rotationally invariant grid construction     ... off

Total number of grid points                  ...    88510
Total number of batches                      ...     1403
Average number of points per batch           ...       63
Average number of grid points per atom       ...     2603
UseSFitting                                  ... on

Time for X-Grid setup             =    1.374 sec


--------------------
CPCM SOLVATION MODEL
--------------------
CPCM parameters:
  Epsilon                                         ...      80.4000
  Refrac                                          ...       1.3300
  Rsolv                                           ...       1.3000
  Surface type                                    ... GAUSSIAN VDW
  Epsilon function type                           ...         CPCM
Radii:
 Radius for Ca used is    5.2383 Bohr (=   2.7720 Ang.)
 Radius for N  used is    3.5149 Bohr (=   1.8600 Ang.)
 Radius for C  used is    3.8550 Bohr (=   2.0400 Ang.)
 Radius for H  used is    2.4944 Bohr (=   1.3200 Ang.)
 Radius for O  used is    3.4469 Bohr (=   1.8240 Ang.)
Calculating surface                               ...        done! (  0.0s)
GEPOL surface points                              ...         1637
GEPOL Volume                                      ...    1894.2181
GEPOL Surface-area                                ...     885.5221
Calculating surface distance matrix               ...        done! (  0.0s)
Performing Cholesky decomposition & store         ...        done! (  0.1s)
Overall time for CPCM initialization              ...                 0.1s
--------------
SCF ITERATIONS
--------------
ITER       Energy         Delta-E        Max-DP      RMS-DP      [F,P]     Damp
               ***  Starting incremental Fock matrix formation  ***
  0  -1424.3896887904   0.000000000000 0.03403268  0.00063184  0.2264838 0.7000
  1  -1424.5382816594  -0.148592868912 0.03171672  0.00047292  0.1133529 0.7000
                               ***Turning on DIIS***
  2  -1424.6060726225  -0.067790963097 0.06898200  0.00091373  0.0448676 0.0000
  3  -1424.7203941802  -0.114321557796 0.01654635  0.00029827  0.0542053 0.0000
  4  -1424.7376420919  -0.017247911614 0.00755351  0.00007657  0.0051993 0.0000
                      *** Initiating the SOSCF procedure ***
                           *** Shutting down DIIS ***
                      *** Re-Reading the Fockian *** 
                      *** Removing any level shift *** 
ITER      Energy       Delta-E        Grad      Rot      Max-DP    RMS-DP
  5  -1424.73803403  -0.0003919372  0.000452  0.000452  0.002903  0.000035
               *** Restarting incremental Fock matrix formation ***
  6  -1424.73812183  -0.0000878017  0.000254  0.000488  0.001343  0.000019
  7  -1424.73813084  -0.0000090141  0.000090  0.000306  0.000984  0.000010
  8  -1424.73813168  -0.0000008313  0.000046  0.000056  0.000212  0.000003
  9  -1424.73813214  -0.0000004633  0.000011  0.000009  0.000059  0.000001
 10  -1424.73813217  -0.0000000319  0.000007  0.000008  0.000026  0.000000
                  ***Gradient check signals convergence***
              ***Rediagonalizing the Fockian in SOSCF/NRSCF***

               *****************************************************
               *                     SUCCESS                       *
               *           SCF CONVERGED AFTER  11 CYCLES          *
               *****************************************************

Old exchange energy                            =    -38.322714295 Eh
New exchange energy                            =    -38.322717584 Eh
Exchange energy change after final integration =     -0.000003289 Eh
Total energy after final integration           =  -1424.738135455 Eh
Final COS-X integration done in                =    36.860 sec

----------------
TOTAL SCF ENERGY
----------------

Total Energy       :        -1424.73813545 Eh          -38769.09565 eV

Components:
Nuclear Repulsion  :         1496.71177237 Eh           40727.59788 eV
Electronic Energy  :        -2921.44990783 Eh          -79496.69353 eV
One Electron Energy:        -4890.58421825 Eh         -133079.56221 eV
Two Electron Energy:         1969.13431042 Eh           53582.86869 eV
Max COSX asymmetry :            0.00000765 Eh               0.00021 eV
CPCM Dielectric    :           -0.27365071 Eh              -7.44641 eV

Virial components:
Potential Energy   :        -2845.10286475 Eh          -77419.18487 eV
Kinetic Energy     :         1420.36472930 Eh           38650.08922 eV
Virial Ratio       :            2.00307907


DFT components:
N(Alpha)           :       65.999890247873 electrons
N(Beta)            :       65.999890247873 electrons
N(Total)           :      131.999780495745 electrons
E(XC)              :      -98.014874773135 Eh       
DFET-embed. en.    :        0.000000000000 Eh       
CPCM Solvation Model Properties:
Surface-charge          :           -2.01531557
Charge-correction       :            0.00349393 Eh               0.09507 eV
Free-energy (cav+disp)  :  This term is not implemented in the current solvation scheme

---------------
SCF CONVERGENCE
---------------

  Last Energy change         ...    5.3985e-09  Tolerance :   1.0000e-08
  Last MAX-Density change    ...    3.1086e-15  Tolerance :   1.0000e-07
  Last RMS-Density change    ...    1.8198e-17  Tolerance :   5.0000e-09
  Last Orbital Gradient      ...    1.0563e-06  Tolerance :   1.0000e-05
  Last Orbital Rotation      ...    2.6077e-06  Tolerance :   1.0000e-05

             **** THE GBW FILE WAS UPDATED (Single.gbw) ****
             **** DENSITY Single.scfp WAS UPDATED ****
             **** ENERGY FILE WAS UPDATED (Single.en.tmp) ****
             **** THE GBW FILE WAS UPDATED (Single.gbw) ****
             **** DENSITY Single.scfp WAS UPDATED ****
----------------
ORBITAL ENERGIES
----------------

  NO   OCC          E(Eh)            E(eV) 
   0   2.0000    -145.304253     -3953.9297 
   1   2.0000     -19.246350      -523.7198 
   2   2.0000     -19.244378      -523.6661 
   3   2.0000     -19.243923      -523.6538 
   4   2.0000     -19.243493      -523.6421 
   5   2.0000     -19.207536      -522.6636 
   6   2.0000     -15.481669      -421.2776 
   7   2.0000     -14.437917      -392.8757 
   8   2.0000     -12.613964      -343.2434 
   9   2.0000     -12.613365      -343.2271 
  10   2.0000     -12.613287      -343.2250 
  11   2.0000     -10.333104      -281.1780 
  12   2.0000     -10.330701      -281.1127 
  13   2.0000     -10.326392      -280.9954 
  14   2.0000     -10.324360      -280.9401 
  15   2.0000     -10.322899      -280.9004 
  16   2.0000     -10.316430      -280.7243 
  17   2.0000     -10.301392      -280.3151 
  18   2.0000     -10.298681      -280.2413 
  19   2.0000      -1.909890       -51.9708 
  20   2.0000      -1.215320       -33.0705 
  21   2.0000      -1.208850       -32.8945 
  22   2.0000      -1.206348       -32.8264 
  23   2.0000      -1.191628       -32.4259 
  24   2.0000      -1.175002       -31.9734 
  25   2.0000      -1.168430       -31.7946 
  26   2.0000      -1.162437       -31.6315 
  27   2.0000      -1.161965       -31.6187 
  28   2.0000      -1.086756       -29.5721 
  29   2.0000      -0.956140       -26.0179 
  30   2.0000      -0.914162       -24.8756 
  31   2.0000      -0.869923       -23.6718 
  32   2.0000      -0.839596       -22.8466 
  33   2.0000      -0.819125       -22.2895 
  34   2.0000      -0.769653       -20.9433 
  35   2.0000      -0.751801       -20.4576 
  36   2.0000      -0.701061       -19.0768 
  37   2.0000      -0.680547       -18.5186 
  38   2.0000      -0.673117       -18.3164 
  39   2.0000      -0.671984       -18.2856 
  40   2.0000      -0.665995       -18.1227 
  41   2.0000      -0.656761       -17.8714 
  42   2.0000      -0.644253       -17.5310 
  43   2.0000      -0.614026       -16.7085 
  44   2.0000      -0.601479       -16.3671 
  45   2.0000      -0.593787       -16.1578 
  46   2.0000      -0.587671       -15.9913 
  47   2.0000      -0.565731       -15.3943 
  48   2.0000      -0.563933       -15.3454 
  49   2.0000      -0.555500       -15.1159 
  50   2.0000      -0.546597       -14.8737 
  51   2.0000      -0.539796       -14.6886 
  52   2.0000      -0.531789       -14.4707 
  53   2.0000      -0.527950       -14.3662 
  54   2.0000      -0.520666       -14.1680 
  55   2.0000      -0.492776       -13.4091 
  56   2.0000      -0.483076       -13.1452 
  57   2.0000      -0.472007       -12.8440 
  58   2.0000      -0.470587       -12.8053 
  59   2.0000      -0.460881       -12.5412 
  60   2.0000      -0.445145       -12.1130 
  61   2.0000      -0.436251       -11.8710 
  62   2.0000      -0.418437       -11.3862 
  63   2.0000      -0.412367       -11.2211 
  64   2.0000      -0.397441       -10.8149 
  65   2.0000      -0.374199       -10.1825 
  66   0.0000       0.039441         1.0733 
  67   0.0000       0.071453         1.9443 
  68   0.0000       0.071855         1.9553 
  69   0.0000       0.082083         2.2336 
  70   0.0000       0.114506         3.1159 
  71   0.0000       0.115764         3.1501 
  72   0.0000       0.119345         3.2476 
  73   0.0000       0.128746         3.5033 
  74   0.0000       0.135359         3.6833 
  75   0.0000       0.141282         3.8445 
  76   0.0000       0.142563         3.8793 
  77   0.0000       0.146480         3.9859 
  78   0.0000       0.152094         4.1387 
  79   0.0000       0.157179         4.2771 
  80   0.0000       0.170573         4.6415 
  81   0.0000       0.171794         4.6748 
  82   0.0000       0.175339         4.7712 
  83   0.0000       0.184549         5.0218 
  84   0.0000       0.186422         5.0728 
  85   0.0000       0.191377         5.2076 
  86   0.0000       0.201571         5.4850 
  87   0.0000       0.201999         5.4967 
  88   0.0000       0.209017         5.6876 
  89   0.0000       0.211637         5.7589 
  90   0.0000       0.218301         5.9403 
  91   0.0000       0.225931         6.1479 
  92   0.0000       0.230725         6.2783 
  93   0.0000       0.238967         6.5026 
  94   0.0000       0.241647         6.5755 
  95   0.0000       0.248888         6.7726 
  96   0.0000       0.249813         6.7978 
  97   0.0000       0.254540         6.9264 
  98   0.0000       0.262537         7.1440 
  99   0.0000       0.267943         7.2911 
 100   0.0000       0.274268         7.4632 
 101   0.0000       0.279849         7.6151 
 102   0.0000       0.284150         7.7321 
 103   0.0000       0.286079         7.7846 
 104   0.0000       0.294098         8.0028 
 105   0.0000       0.300030         8.1642 
 106   0.0000       0.306926         8.3519 
 107   0.0000       0.312857         8.5133 
 108   0.0000       0.319723         8.7001 
 109   0.0000       0.323495         8.8027 
 110   0.0000       0.334215         9.0944 
 111   0.0000       0.338798         9.2192 
 112   0.0000       0.343684         9.3521 
 113   0.0000       0.354868         9.6564 
 114   0.0000       0.361916         9.8482 
 115   0.0000       0.369144        10.0449 
 116   0.0000       0.373385        10.1603 
 117   0.0000       0.387587        10.5468 
 118   0.0000       0.393965        10.7203 
 119   0.0000       0.398089        10.8325 
 120   0.0000       0.400837        10.9073 
 121   0.0000       0.414495        11.2790 
 122   0.0000       0.422808        11.5052 
 123   0.0000       0.427781        11.6405 
 124   0.0000       0.434199        11.8152 
 125   0.0000       0.446907        12.1610 
 126   0.0000       0.452701        12.3186 
 127   0.0000       0.466150        12.6846 
 128   0.0000       0.468465        12.7476 
 129   0.0000       0.471218        12.8225 
 130   0.0000       0.476805        12.9745 
 131   0.0000       0.480363        13.0714 
 132   0.0000       0.488630        13.2963 
 133   0.0000       0.501207        13.6385 
 134   0.0000       0.504056        13.7161 
 135   0.0000       0.505452        13.7541 
 136   0.0000       0.510298        13.8859 
 137   0.0000       0.511950        13.9309 
 138   0.0000       0.520715        14.1694 
 139   0.0000       0.528114        14.3707 
 140   0.0000       0.530211        14.4278 
 141   0.0000       0.534420        14.5423 
 142   0.0000       0.536790        14.6068 
 143   0.0000       0.544242        14.8096 
 144   0.0000       0.549856        14.9623 
 145   0.0000       0.558248        15.1907 
 146   0.0000       0.566838        15.4244 
 147   0.0000       0.572573        15.5805 
 148   0.0000       0.581833        15.8325 
 149   0.0000       0.586430        15.9576 
 150   0.0000       0.587390        15.9837 
 151   0.0000       0.599826        16.3221 
 152   0.0000       0.610421        16.6104 
 153   0.0000       0.615656        16.7528 
 154   0.0000       0.624506        16.9937 
 155   0.0000       0.630583        17.1590 
 156   0.0000       0.639388        17.3986 
 157   0.0000       0.643716        17.5164 
 158   0.0000       0.648521        17.6471 
 159   0.0000       0.653532        17.7835 
 160   0.0000       0.659936        17.9578 
 161   0.0000       0.666081        18.1250 
 162   0.0000       0.673988        18.3401 
 163   0.0000       0.681873        18.5547 
 164   0.0000       0.688056        18.7230 
 165   0.0000       0.693770        18.8784 
 166   0.0000       0.696756        18.9597 
 167   0.0000       0.707468        19.2512 
 168   0.0000       0.717972        19.5370 
 169   0.0000       0.722517        19.6607 
 170   0.0000       0.732556        19.9339 
 171   0.0000       0.738778        20.1032 
 172   0.0000       0.757179        20.6039 
 173   0.0000       0.766101        20.8467 
 174   0.0000       0.774440        21.0736 
 175   0.0000       0.789377        21.4801 
 176   0.0000       0.795212        21.6388 
 177   0.0000       0.804110        21.8810 
 178   0.0000       0.816511        22.2184 
 179   0.0000       0.821381        22.3509 
 180   0.0000       0.841153        22.8889 
 181   0.0000       0.850556        23.1448 
 182   0.0000       0.870894        23.6982 
 183   0.0000       0.877716        23.8839 
 184   0.0000       0.895459        24.3667 
 185   0.0000       0.910001        24.7624 
 186   0.0000       0.915359        24.9082 
 187   0.0000       0.927291        25.2329 
 188   0.0000       0.939591        25.5676 
 189   0.0000       0.944922        25.7126 
 190   0.0000       0.964773        26.2528 
 191   0.0000       0.970820        26.4174 
 192   0.0000       0.984608        26.7926 
 193   0.0000       0.993416        27.0322 
 194   0.0000       0.997816        27.1519 
 195   0.0000       1.001489        27.2519 
 196   0.0000       1.023301        27.8454 
 197   0.0000       1.028046        27.9746 
 198   0.0000       1.048189        28.5227 
 199   0.0000       1.053310        28.6620 
 200   0.0000       1.068300        29.0699 
 201   0.0000       1.081079        29.4177 
 202   0.0000       1.084542        29.5119 
 203   0.0000       1.098953        29.9040 
 204   0.0000       1.105190        30.0737 
 205   0.0000       1.116892        30.3922 
 206   0.0000       1.120308        30.4851 
 207   0.0000       1.131672        30.7944 
 208   0.0000       1.152552        31.3625 
 209   0.0000       1.164697        31.6930 
 210   0.0000       1.171406        31.8756 
 211   0.0000       1.190138        32.3853 
 212   0.0000       1.195656        32.5355 
 213   0.0000       1.212795        33.0018 
 214   0.0000       1.229640        33.4602 
 215   0.0000       1.238571        33.7032 
 216   0.0000       1.250578        34.0300 
 217   0.0000       1.262404        34.3518 
 218   0.0000       1.280192        34.8358 
 219   0.0000       1.292605        35.1736 
 220   0.0000       1.308621        35.6094 
 221   0.0000       1.322008        35.9737 
 222   0.0000       1.332027        36.2463 
 223   0.0000       1.338267        36.4161 
 224   0.0000       1.348229        36.6872 
 225   0.0000       1.353218        36.8229 
 226   0.0000       1.363286        37.0969 
 227   0.0000       1.369699        37.2714 
 228   0.0000       1.380327        37.5606 
 229   0.0000       1.399249        38.0755 
 230   0.0000       1.409137        38.3446 
 231   0.0000       1.432643        38.9842 
 232   0.0000       1.442949        39.2646 
 233   0.0000       1.456999        39.6469 
 234   0.0000       1.476415        40.1753 
 235   0.0000       1.507401        41.0185 
 236   0.0000       1.527693        41.5706 
 237   0.0000       1.533140        41.7189 
 238   0.0000       1.541025        41.9334 
 239   0.0000       1.549800        42.1722 
 240   0.0000       1.565163        42.5903 
 241   0.0000       1.580908        43.0187 
 242   0.0000       1.589194        43.2442 
 243   0.0000       1.598116        43.4869 
 244   0.0000       1.607068        43.7306 
 245   0.0000       1.614011        43.9195 
 246   0.0000       1.627390        44.2835 
 247   0.0000       1.634110        44.4664 
 248   0.0000       1.636731        44.5377 
 249   0.0000       1.653999        45.0076 
 250   0.0000       1.675059        45.5807 
 251   0.0000       1.680735        45.7351 
 252   0.0000       1.690126        45.9907 
 253   0.0000       1.694954        46.1221 
 254   0.0000       1.697558        46.1929 
 255   0.0000       1.704547        46.3831 
 256   0.0000       1.711756        46.5793 
 257   0.0000       1.725614        46.9564 
 258   0.0000       1.731921        47.1280 
 259   0.0000       1.736935        47.2644 
 260   0.0000       1.748185        47.5705 
 261   0.0000       1.751640        47.6645 
 262   0.0000       1.759492        47.8782 
 263   0.0000       1.764438        48.0128 
 264   0.0000       1.770583        48.1800 
 265   0.0000       1.780195        48.4416 
 266   0.0000       1.781892        48.4878 
 267   0.0000       1.786102        48.6023 
 268   0.0000       1.799351        48.9628 
 269   0.0000       1.828284        49.7501 
 270   0.0000       1.835171        49.9375 
 271   0.0000       1.846462        50.2448 
 272   0.0000       1.850620        50.3579 
 273   0.0000       1.871390        50.9231 
 274   0.0000       1.874778        51.0153 
 275   0.0000       1.895304        51.5739 
 276   0.0000       1.899547        51.6893 
 277   0.0000       1.904919        51.8355 
 278   0.0000       1.921870        52.2967 
 279   0.0000       1.932957        52.5984 
 280   0.0000       1.940711        52.8094 
 281   0.0000       1.955968        53.2246 
 282   0.0000       1.965056        53.4719 
 283   0.0000       1.972383        53.6713 
 284   0.0000       1.998452        54.3807 
 285   0.0000       2.006898        54.6105 
 286   0.0000       2.016944        54.8838 
 287   0.0000       2.025105        55.1059 
 288   0.0000       2.037227        55.4358 
 289   0.0000       2.046737        55.6945 
 290   0.0000       2.068454        56.2855 
 291   0.0000       2.070967        56.3539 
 292   0.0000       2.075989        56.4905 
 293   0.0000       2.092901        56.9507 
 294   0.0000       2.108307        57.3699 
 295   0.0000       2.115556        57.5672 
 296   0.0000       2.132604        58.0311 
 297   0.0000       2.141548        58.2745 
 298   0.0000       2.144574        58.3568 
 299   0.0000       2.155221        58.6465 
 300   0.0000       2.165526        58.9270 
 301   0.0000       2.177210        59.2449 
 302   0.0000       2.189819        59.5880 
 303   0.0000       2.198741        59.8308 
 304   0.0000       2.212966        60.2179 
 305   0.0000       2.221662        60.4545 
 306   0.0000       2.226979        60.5992 
 307   0.0000       2.229931        60.6795 
 308   0.0000       2.246260        61.1239 
 309   0.0000       2.249515        61.2124 
 310   0.0000       2.263693        61.5982 
 311   0.0000       2.267029        61.6890 
 312   0.0000       2.281340        62.0784 
 313   0.0000       2.298228        62.5380 
 314   0.0000       2.301598        62.6297 
 315   0.0000       2.324923        63.2644 
 316   0.0000       2.327093        63.3234 
 317   0.0000       2.343956        63.7823 
 318   0.0000       2.359432        64.2034 
 319   0.0000       2.369169        64.4684 
 320   0.0000       2.375565        64.6424 
 321   0.0000       2.394834        65.1667 
 322   0.0000       2.407336        65.5069 
 323   0.0000       2.413126        65.6645 
 324   0.0000       2.428292        66.0772 
 325   0.0000       2.438908        66.3661 
 326   0.0000       2.447317        66.5949 
 327   0.0000       2.451650        66.7128 
 328   0.0000       2.468387        67.1682 
 329   0.0000       2.479588        67.4730 
 330   0.0000       2.485561        67.6356 
 331   0.0000       2.504615        68.1540 
 332   0.0000       2.513355        68.3919 
 333   0.0000       2.523332        68.6634 
 334   0.0000       2.529198        68.8230 
 335   0.0000       2.544132        69.2294 
 336   0.0000       2.556205        69.5579 
 337   0.0000       2.580319        70.2140 
 338   0.0000       2.592779        70.5531 
 339   0.0000       2.596539        70.6554 
 340   0.0000       2.603531        70.8457 
 341   0.0000       2.608856        70.9906 
 342   0.0000       2.632756        71.6409 
 343   0.0000       2.638096        71.7862 
 344   0.0000       2.643531        71.9341 
[...]
     76      -0.007031   0.000048   0.000197   0.000220  -0.000133   0.000027
     77       0.002786   0.003368  -0.000181  -0.000233   0.000284  -0.000003
     78       0.131525   0.000156   0.002082   0.002097  -0.000646   0.000118
     79       0.002537  -0.000639  -0.000587  -0.000500   0.000063   0.000009
     80      -0.008033  -0.000247  -0.002423  -0.002144   0.000527  -0.000012
     81       0.026342   0.000398   0.000622   0.000494  -0.000081   0.000001
     82       0.074336   0.000523   0.001527   0.000976   0.000004  -0.000065
     83       0.020675  -0.000122  -0.002534  -0.002291   0.000553   0.000003
     84       0.000147   0.000824   0.008985   0.007591  -0.001783   0.000057
     85       0.000105  -0.003305  -0.039176  -0.032996   0.007817  -0.000249
     86      -0.000114   0.002158   0.024971   0.020951  -0.004930   0.000158
     87      -0.000248   0.890649  -0.028948  -0.044909   0.048365  -0.002464
     88      -0.000038  -0.215461   0.006949   0.010854  -0.011597   0.000592
     89      -0.000043   0.387124  -0.012597  -0.019607   0.021258  -0.001079
     90       0.000991  -0.012755  -0.148352  -0.124401   0.029274  -0.000900
     91      -0.000694   0.053940   0.628796   0.528271  -0.124447   0.003817
     92      -0.000077  -0.033232  -0.388416  -0.326599   0.077052  -0.002374
     93      -0.000270   0.000516   0.001293  -0.002759   0.004524   0.306168
     94       0.001368  -0.000394  -0.001045   0.002238  -0.003259  -0.226443
     95      -0.000138   0.001524   0.004167  -0.008594   0.013657   0.922338
     96      -0.000120  -0.009838  -0.003424   0.060327   0.234564  -0.002803
     97      -0.000228  -0.036407  -0.012266   0.222756   0.866482  -0.010563
     98      -0.000074  -0.014858  -0.005002   0.091308   0.356085  -0.004294
     99      -0.000840   0.019235  -0.478239   0.533446  -0.142737   0.009178
    100       0.000532   0.012729  -0.317877   0.354438  -0.094678   0.006058
    101      -0.000684  -0.012434   0.311079  -0.347030   0.093177  -0.005924


-----------
IR SPECTRUM
-----------

 Mode   freq       eps      Int      T**2         TX        TY        TZ
       cm**-1   L/(mol*cm) km/mol    a.u.
----------------------------------------------------------------------------
  6:     59.37   0.000315    1.59  0.001656  (-0.031387  0.000735  0.025886)
  7:     73.33   0.000567    2.87  0.002415  (-0.032095  0.021559  0.030326)
  8:    103.01   0.000047    0.24  0.000143  ( 0.005895 -0.009249  0.004726)
  9:    115.07   0.000916    4.63  0.002483  (-0.019407  0.045716  0.004023)
 10:    132.84   0.041003  207.21  0.096324  (-0.286427  0.060414  0.103119)
 11:    144.17   0.003094   15.64  0.006697  (-0.051899 -0.050597  0.037994)
 12:    150.58   0.036585  184.88  0.075821  ( 0.231764 -0.018531 -0.147522)
 13:    168.98   0.006088   30.77  0.011243  (-0.073292  0.002339  0.076592)
 14:    173.02   0.002144   10.84  0.003867  ( 0.026850 -0.021792 -0.051687)
 15:    212.97   0.001379    6.97  0.002021  (-0.039792 -0.017231 -0.011859)
 16:    221.39   0.014694   74.26  0.020712  (-0.007976 -0.056953 -0.131929)
 17:    230.26   0.006705   33.88  0.009087  (-0.064073 -0.067207  0.021556)
 18:    246.22   0.029456  148.86  0.037333  (-0.111648  0.143590  0.065186)
 19:    257.49   0.013628   68.87  0.016517  (-0.016435  0.126537  0.015333)
 20:    280.44   0.011290   57.06  0.012563  (-0.109344 -0.016035  0.018704)
 21:    284.14   0.001901    9.61  0.002088  (-0.031368  0.017823  0.028047)
 22:    296.93   0.038077  192.43  0.040018  (-0.120820 -0.157904 -0.022069)
 23:    305.07   0.011241   56.81  0.011499  (-0.096388  0.044884 -0.013924)
 24:    316.49   0.027553  139.24  0.027168  (-0.060016 -0.152153 -0.020382)
 25:    336.58   0.004883   24.67  0.004527  (-0.062907 -0.023199  0.005607)
 26:    341.80   0.005928   29.96  0.005413  ( 0.019468  0.070887  0.002945)
 27:    367.42   0.008220   41.54  0.006982  ( 0.082971 -0.009871  0.000492)
 28:    375.64   0.008447   42.69  0.007017  (-0.043833  0.071380 -0.000937)
 29:    416.73   0.001491    7.53  0.001116  (-0.020971  0.026009  0.000382)
 30:    434.58   0.001189    6.01  0.000854  ( 0.012693 -0.014708 -0.021831)
 31:    462.17   0.004665   23.57  0.003150  ( 0.026751 -0.021302  0.044502)
 32:    485.07   0.000144    0.73  0.000093  (-0.000988  0.008352  0.004676)
 33:    529.84   0.000316    1.60  0.000186  ( 0.007838  0.002028 -0.010971)
 34:    551.15   0.002077   10.50  0.001176  ( 0.024003  0.023938  0.005194)
 35:    577.38   0.004602   23.26  0.002487  (-0.006714 -0.021548  0.044474)
 36:    655.70   0.015989   80.80  0.007610  ( 0.024136  0.027415  0.079218)
 37:    763.30   0.006592   33.31  0.002695  (-0.006042 -0.012513 -0.050020)
 38:    840.25   0.000804    4.06  0.000299  ( 0.013501 -0.010728 -0.001113)
 39:    871.56   0.000946    4.78  0.000339  ( 0.001743 -0.001551  0.018258)
 40:    897.91   0.022629  114.36  0.007865  ( 0.015774 -0.004175  0.087169)
 41:    931.92   0.005082   25.68  0.001702  ( 0.036663 -0.018539 -0.003726)
 42:    936.78   0.001977    9.99  0.000658  ( 0.008665  0.008150 -0.022737)
 43:    971.64   0.000947    4.79  0.000304  ( 0.001706 -0.012924 -0.011587)
 44:   1016.38   0.000725    3.66  0.000223  ( 0.011840  0.009075  0.000089)
 45:   1033.96   0.037792  190.98  0.011406  ( 0.040724  0.017393  0.097186)
 46:   1055.47   0.007573   38.27  0.002239  (-0.042990  0.019458 -0.003491)
 47:   1060.40   0.005746   29.04  0.001691  ( 0.036762 -0.001254  0.018383)
 48:   1064.80   0.029335  148.25  0.008597  ( 0.022362 -0.035716  0.082592)
 49:   1096.09   0.036278  183.33  0.010328  ( 0.028484 -0.020298 -0.095421)
 50:   1106.27   0.004633   23.41  0.001307  ( 0.000602 -0.022643  0.028174)
 51:   1113.91   0.000362    1.83  0.000101  ( 0.000402  0.009896 -0.001834)
 52:   1140.58   0.005479   27.69  0.001499  (-0.014343  0.034908 -0.008651)
 53:   1149.03   0.018298   92.47  0.004969  (-0.028176 -0.063885  0.009707)
 54:   1181.91   0.005818   29.40  0.001536  (-0.008690  0.024458  0.029369)
 55:   1199.69   0.012512   63.23  0.003255  (-0.027381  0.050020 -0.001677)
 56:   1207.15   0.012685   64.10  0.003279  (-0.038402 -0.036623 -0.021523)
 57:   1234.87   0.004965   25.09  0.001255  (-0.020454 -0.013056 -0.025803)
 58:   1237.28   0.001392    7.04  0.000351  (-0.013355 -0.012898  0.002534)
 59:   1246.52   0.020215  102.16  0.005061  ( 0.025344 -0.016587 -0.064368)
 60:   1262.90   0.004478   22.63  0.001107  (-0.002964 -0.030900  0.011958)
 61:   1275.38   0.008479   42.85  0.002075  (-0.024947 -0.037880 -0.004165)
 62:   1283.74   0.017216   87.00  0.004185  (-0.021965  0.008907 -0.060193)
 63:   1287.03   0.024593  124.29  0.005963  ( 0.038228 -0.004006  0.066975)
 64:   1302.10   0.002678   13.53  0.000642  ( 0.002990 -0.014538 -0.020528)
 65:   1328.53   0.000086    0.44  0.000020  ( 0.001213 -0.000447  0.004313)
 66:   1338.89   0.000811    4.10  0.000189  ( 0.012103  0.005602 -0.003337)
 67:   1352.23   0.003681   18.60  0.000850  ( 0.018440 -0.010988  0.019718)
 68:   1378.46   0.012401   62.67  0.002807  (-0.026100  0.019083  0.041977)
 69:   1403.69   0.001557    7.87  0.000346  (-0.011090 -0.014616  0.003085)
 70:   1433.86   0.001386    7.00  0.000302  (-0.009781  0.004630  0.013583)
 71:   1455.75   0.000925    4.68  0.000198  (-0.004682 -0.012262 -0.005104)
 72:   1461.35   0.001032    5.22  0.000220  ( 0.014445 -0.001049  0.003268)
 73:   1466.35   0.001421    7.18  0.000303  (-0.009454  0.014454  0.002050)
 74:   1472.61   0.000073    0.37  0.000015  ( 0.000574  0.001355  0.003646)
 75:   1481.98   0.001177    5.95  0.000248  (-0.009392  0.007053 -0.010478)
 76:   1483.18   0.001161    5.87  0.000244  (-0.001557 -0.001083 -0.015517)
 77:   1502.77   0.005682   28.72  0.001180  (-0.009247  0.013871 -0.030034)
 78:   1512.56   0.001315    6.65  0.000271  ( 0.002232  0.014595 -0.007301)
 79:   1514.63   0.000754    3.81  0.000155  (-0.002640 -0.002710 -0.011877)
 80:   1537.29   0.004370   22.08  0.000887  ( 0.016047  0.025035  0.001690)
 81:   1543.25   0.005267   26.62  0.001065  (-0.029140  0.014377 -0.003044)
 82:   1553.97   0.002663   13.46  0.000535  ( 0.018414 -0.013375  0.004103)
 83:   3046.08   0.009415   47.58  0.000965  (-0.000387 -0.030989 -0.002030)
 84:   3069.53   0.004744   23.97  0.000482  ( 0.004892  0.007709 -0.019973)
 85:   3084.02   0.003882   19.62  0.000393  (-0.000281  0.011665  0.016021)
 86:   3094.13   0.006795   34.34  0.000685  ( 0.023687 -0.000794 -0.011118)
 87:   3097.23   0.002757   13.93  0.000278  ( 0.003981  0.012380 -0.010424)
 88:   3105.12   0.001229    6.21  0.000123  ( 0.005062  0.005031 -0.008517)
 89:   3106.60   0.008824   44.59  0.000886  ( 0.020767 -0.013840  0.016234)
 90:   3113.13   0.012962   65.50  0.001299  ( 0.020535 -0.016542 -0.024576)
 91:   3148.34   0.004868   24.60  0.000483  ( 0.020527  0.003302 -0.007089)
 92:   3152.63   0.004397   22.22  0.000435  ( 0.008389  0.018772  0.003528)
 93:   3165.19   0.002481   12.54  0.000245  ( 0.015376 -0.001421 -0.002477)
 94:   3174.41   0.003560   17.99  0.000350  ( 0.007711 -0.015293 -0.007523)
 95:   3195.72   0.003456   17.46  0.000337  (-0.002728 -0.017939 -0.002865)
 96:   3216.79   0.002065   10.44  0.000200  (-0.011232 -0.008597  0.000511)
 97:   3840.14   0.042528  214.92  0.003456  ( 0.051308 -0.009072  0.027224)
 98:   3849.13   0.018401   92.99  0.001492  (-0.034202  0.017215 -0.005075)
 99:   3850.08   0.083623  422.60  0.006778  ( 0.026404  0.062981 -0.045981)
100:   3852.46   0.047653  240.82  0.003860  ( 0.014330  0.038304  0.046771)
101:   3867.15   0.024915  125.91  0.002011  ( 0.017846 -0.000270  0.041134)

* The epsilon (eps) is given for a Dirac delta lineshape.
** The dipole moment derivative (T) already includes vibrational overlap.

The first frequency considered to be a vibration is 6
The total number of vibrations considered is 96


--------------------------
THERMOCHEMISTRY AT 298.15K
--------------------------

Temperature         ... 298.15 K
Pressure            ... 1.00 atm
Total Mass          ... 249.32 AMU

Throughout the following assumptions are being made:
  (1) The electronic state is orbitally nondegenerate
  (2) There are no thermally accessible electronically excited states
  (3) Hindered rotations indicated by low frequency modes are not
      treated as such but are treated as vibrations and this may
      cause some error
  (4) All equations used are the standard statistical mechanics
      equations for an ideal gas
  (5) All vibrations are strictly harmonic

freq.      59.37  E(vib)   ...       0.51 
freq.      73.33  E(vib)   ...       0.49 
freq.     103.01  E(vib)   ...       0.46 
freq.     115.07  E(vib)   ...       0.44 
freq.     132.84  E(vib)   ...       0.42 
freq.     144.17  E(vib)   ...       0.41 
freq.     150.58  E(vib)   ...       0.40 
freq.     168.98  E(vib)   ...       0.38 
freq.     173.02  E(vib)   ...       0.38 
freq.     212.97  E(vib)   ...       0.34 
freq.     221.39  E(vib)   ...       0.33 
freq.     230.26  E(vib)   ...       0.32 
freq.     246.22  E(vib)   ...       0.31 
freq.     257.49  E(vib)   ...       0.30 
freq.     280.44  E(vib)   ...       0.28 
freq.     284.14  E(vib)   ...       0.28 
freq.     296.93  E(vib)   ...       0.27 
freq.     305.07  E(vib)   ...       0.26 
freq.     316.49  E(vib)   ...       0.25 
freq.     336.58  E(vib)   ...       0.24 
freq.     341.80  E(vib)   ...       0.23 
freq.     367.42  E(vib)   ...       0.21 
freq.     375.64  E(vib)   ...       0.21 
freq.     416.73  E(vib)   ...       0.18 
freq.     434.58  E(vib)   ...       0.17 
freq.     462.17  E(vib)   ...       0.16 
freq.     485.07  E(vib)   ...       0.15 
freq.     529.84  E(vib)   ...       0.13 
freq.     551.15  E(vib)   ...       0.12 
freq.     577.38  E(vib)   ...       0.11 
freq.     655.70  E(vib)   ...       0.08 
freq.     763.30  E(vib)   ...       0.06 
freq.     840.25  E(vib)   ...       0.04 
freq.     871.56  E(vib)   ...       0.04 
freq.     897.91  E(vib)   ...       0.03 
freq.     931.92  E(vib)   ...       0.03 
freq.     936.78  E(vib)   ...       0.03 
freq.     971.64  E(vib)   ...       0.03 
freq.    1016.38  E(vib)   ...       0.02 
freq.    1033.96  E(vib)   ...       0.02 
freq.    1055.47  E(vib)   ...       0.02 
freq.    1060.40  E(vib)   ...       0.02 
freq.    1064.80  E(vib)   ...       0.02 
freq.    1096.09  E(vib)   ...       0.02 
freq.    1106.27  E(vib)   ...       0.02 
freq.    1113.91  E(vib)   ...       0.01 
freq.    1140.58  E(vib)   ...       0.01 
freq.    1149.03  E(vib)   ...       0.01 
freq.    1181.91  E(vib)   ...       0.01 
freq.    1199.69  E(vib)   ...       0.01 
freq.    1207.15  E(vib)   ...       0.01 
freq.    1234.87  E(vib)   ...       0.01 
freq.    1237.28  E(vib)   ...       0.01 
freq.    1246.52  E(vib)   ...       0.01 
freq.    1262.90  E(vib)   ...       0.01 
freq.    1275.38  E(vib)   ...       0.01 
freq.    1283.74  E(vib)   ...       0.01 
freq.    1287.03  E(vib)   ...       0.01 
freq.    1302.10  E(vib)   ...       0.01 
freq.    1328.53  E(vib)   ...       0.01 
freq.    1338.89  E(vib)   ...       0.01 
freq.    1352.23  E(vib)   ...       0.01 
freq.    1378.46  E(vib)   ...       0.01 
freq.    1403.69  E(vib)   ...       0.00 
freq.    1433.86  E(vib)   ...       0.00 
freq.    1455.75  E(vib)   ...       0.00 
freq.    1461.35  E(vib)   ...       0.00 
freq.    1466.35  E(vib)   ...       0.00 
freq.    1472.61  E(vib)   ...       0.00 
freq.    1481.98  E(vib)   ...       0.00 
freq.    1483.18  E(vib)   ...       0.00 
freq.    1502.77  E(vib)   ...       0.00 
freq.    1512.56  E(vib)   ...       0.00 
freq.    1514.63  E(vib)   ...       0.00 
freq.    1537.29  E(vib)   ...       0.00 
freq.    1543.25  E(vib)   ...       0.00 
freq.    1553.97  E(vib)   ...       0.00 
freq.    3046.08  E(vib)   ...       0.00 
freq.    3069.53  E(vib)   ...       0.00 
freq.    3084.02  E(vib)   ...       0.00 
freq.    3094.13  E(vib)   ...       0.00 
freq.    3097.23  E(vib)   ...       0.00 
freq.    3105.12  E(vib)   ...       0.00 
freq.    3106.60  E(vib)   ...       0.00 
freq.    3113.13  E(vib)   ...       0.00 
freq.    3148.34  E(vib)   ...       0.00 
freq.    3152.63  E(vib)   ...       0.00 
freq.    3165.19  E(vib)   ...       0.00 
freq.    3174.41  E(vib)   ...       0.00 
freq.    3195.72  E(vib)   ...       0.00 
freq.    3216.79  E(vib)   ...       0.00 
freq.    3840.14  E(vib)   ...       0.00 
freq.    3849.13  E(vib)   ...       0.00 
freq.    3850.08  E(vib)   ...       0.00 
freq.    3852.46  E(vib)   ...       0.00 
freq.    3867.15  E(vib)   ...       0.00 

------------
INNER ENERGY
------------

The inner energy is: U= E(el) + E(ZPE) + E(vib) + E(rot) + E(trans)
    E(el)   - is the total energy from the electronic structure calculation
              = E(kin-el) + E(nuc-el) + E(el-el) + E(nuc-nuc)
    E(ZPE)  - the the zero temperature vibrational energy from the frequency calculation
    E(vib)  - the the finite temperature correction to E(ZPE) due to population
              of excited vibrational states
    E(rot)  - is the rotational thermal energy
    E(trans)- is the translational thermal energy

Summary of contributions to the inner energy U:
Electronic energy                ...  -1424.74485228 Eh
Zero point energy                ...      0.29462152 Eh     184.88 kcal/mol
Thermal vibrational correction   ...      0.01501828 Eh       9.42 kcal/mol
Thermal rotational correction    ...      0.00141627 Eh       0.89 kcal/mol
Thermal translational correction ...      0.00141627 Eh       0.89 kcal/mol
-----------------------------------------------------------------------
Total thermal energy                  -1424.43237994 Eh


Summary of corrections to the electronic energy:
(perhaps to be used in another calculation)
Total thermal correction                  0.01785083 Eh      11.20 kcal/mol
Non-thermal (ZPE) correction              0.29462152 Eh     184.88 kcal/mol
-----------------------------------------------------------------------
Total correction                          0.31247234 Eh     196.08 kcal/mol


--------
ENTHALPY
--------

The enthalpy is H = U + kB*T
                kB is Boltzmann's constant
Total free energy                 ...  -1424.43237994 Eh 
Thermal Enthalpy correction       ...      0.00094421 Eh       0.59 kcal/mol
-----------------------------------------------------------------------
Total Enthalpy                    ...  -1424.43143573 Eh


Note: Only C1 symmetry has been detected, increase convergence thresholds 
      if your molecule has a higher symmetry. Symmetry factor of 1.0 is   
      used for the rotational entropy correction. 
 

Note: Rotational entropy computed according to Herzberg 
Infrared and Raman Spectra, Chapter V,1, Van Nostrand Reinhold, 1945 
Point Group:  C1, Symmetry Number:   1  
Rotational constants in cm-1:     0.022282     0.016317     0.015535 

Vibrational entropy computed according to the QRRHO of S. Grimme
Chem.Eur.J. 2012 18 9955


-------
ENTROPY
-------

The entropy contributions are T*S = T*(S(el)+S(vib)+S(rot)+S(trans))
     S(el)   - electronic entropy
     S(vib)  - vibrational entropy
     S(rot)  - rotational entropy
     S(trans)- translational entropy
The entropies will be listed as multiplied by the temperature to get
units of energy

Electronic entropy                ...      0.00000000 Eh      0.00 kcal/mol
Vibrational entropy               ...      0.02597381 Eh     16.30 kcal/mol
Rotational entropy                ...      0.01521566 Eh      9.55 kcal/mol
Translational entropy             ...      0.02016511 Eh     12.65 kcal/mol
-----------------------------------------------------------------------
Final entropy term                ...      0.06135459 Eh     38.50 kcal/mol

In case the symmetry of your molecule has not been determined correctly
or in case you have a reason to use a different symmetry number we print 
out the resulting rotational entropy values for sn=1,12 :
 --------------------------------------------------------
|  sn= 1 | S(rot)=       0.01521566 Eh      9.55 kcal/mol|
|  sn= 2 | S(rot)=       0.01456120 Eh      9.14 kcal/mol|
|  sn= 3 | S(rot)=       0.01417837 Eh      8.90 kcal/mol|
|  sn= 4 | S(rot)=       0.01390675 Eh      8.73 kcal/mol|
|  sn= 5 | S(rot)=       0.01369606 Eh      8.59 kcal/mol|
|  sn= 6 | S(rot)=       0.01352392 Eh      8.49 kcal/mol|
|  sn= 7 | S(rot)=       0.01337837 Eh      8.40 kcal/mol|
|  sn= 8 | S(rot)=       0.01325229 Eh      8.32 kcal/mol|
|  sn= 9 | S(rot)=       0.01314108 Eh      8.25 kcal/mol|
|  sn=10 | S(rot)=       0.01304160 Eh      8.18 kcal/mol|
|  sn=11 | S(rot)=       0.01295161 Eh      8.13 kcal/mol|
|  sn=12 | S(rot)=       0.01286946 Eh      8.08 kcal/mol|
 --------------------------------------------------------


-------------------
GIBBS FREE ENERGY
-------------------

The Gibbs free energy is G = H - T*S

Total enthalpy                    ...  -1424.43143573 Eh 
Total entropy correction          ...     -0.06135459 Eh    -38.50 kcal/mol
-----------------------------------------------------------------------
Final Gibbs free energy         ...  -1424.49279032 Eh

For completeness - the Gibbs free energy minus the electronic energy
G-E(el)                           ...      0.25206196 Eh    158.17 kcal/mol


Timings for individual modules:

Sum of individual times         ...     5836.457 sec (=  97.274 min)
GTO integral calculation        ...       18.423 sec (=   0.307 min)   0.3 %
SCF iterations                  ...     2746.204 sec (=  45.770 min)  47.1 %
SCF Gradient evaluation         ...      924.384 sec (=  15.406 min)  15.8 %
Geometry relaxation             ...        1.899 sec (=   0.032 min)   0.0 %
Analytical frequency calculation...     2145.546 sec (=  35.759 min)  36.8 %
                             ****ORCA TERMINATED NORMALLY****
TOTAL RUN TIME: 0 days 1 hours 37 minutes 24 seconds 190 msec
