
                                 *****************
                                 * O   R   C   A *
                                 *****************

                                            #,                                       
                                            ###                                      
                                            ####                                     
                                            #####                                    
                                            ######                                   
                                           ########,                                 
                                     ,,################,,,,,                         
                               ,,#################################,,                 
                          ,,##########################################,,             
                       ,#########################################, ''#####,          
                    ,#############################################,,   '####,        
                  ,##################################################,,,,####,       
                ,###########''''           ''''###############################       
              ,#####''   ,,,,##########,,,,          '''####'''          '####       
            ,##' ,,,,###########################,,,                        '##       
           ' ,,###''''                  '''############,,,                           
         ,,##''                                '''############,,,,        ,,,,,,###''
      ,#''                                            '''#######################'''  
     '                                                          ''''####''''         
             ,#######,   #######,   ,#######,      ##                                
            ,#'     '#,  ##    ##  ,#'     '#,    #''#        ######   ,####,        
            ##       ##  ##   ,#'  ##            #'  '#       #        #'  '#        
            ##       ##  #######   ##           ,######,      #####,   #    #        
            '#,     ,#'  ##    ##  '#,     ,#' ,#      #,         ##   #,  ,#        
             '#######'   ##     ##  '#######'  #'      '#     #####' # '####'        



                  #######################################################
                  #                        -***-                        #
                  #          Department of theory and spectroscopy      #
                  #    Directorship and core code : Frank Neese         #
                  #        Max Planck Institute fuer Kohlenforschung    #
                  #                Kaiser Wilhelm Platz 1               #
                  #                 D-45470 Muelheim/Ruhr               #
                  #                      Germany                        #
                  #                                                     #
                  #                  All rights reserved                #
                  #                        -***-                        #
                  #######################################################


                         Program Version 5.0.3 -  RELEASE  -


 With contributions from (in alphabetic order):
   Daniel Aravena         : Magnetic Suceptibility
   Michael Atanasov       : Ab Initio Ligand Field Theory (pilot matlab implementation)
   Alexander A. Auer      : GIAO ZORA, VPT2 properties, NMR spectrum
   Ute Becker             : Parallelization
   Giovanni Bistoni       : ED, misc. LED, open-shell LED, HFLD
   Martin Brehm           : Molecular dynamics
   Dmytro Bykov           : SCF Hessian
   Vijay G. Chilkuri      : MRCI spin determinant printing, contributions to CSF-ICE
   Dipayan Datta          : RHF DLPNO-CCSD density
   Achintya Kumar Dutta   : EOM-CC, STEOM-CC
   Dmitry Ganyushin       : Spin-Orbit,Spin-Spin,Magnetic field MRCI
   Miquel Garcia          : C-PCM and meta-GGA Hessian, CC/C-PCM, Gaussian charge scheme
   Yang Guo               : DLPNO-NEVPT2, F12-NEVPT2, CIM, IAO-localization
   Andreas Hansen         : Spin unrestricted coupled pair/coupled cluster methods
   Benjamin Helmich-Paris : MC-RPA, TRAH-SCF, COSX integrals
   Lee Huntington         : MR-EOM, pCC
   Robert Izsak           : Overlap fitted RIJCOSX, COSX-SCS-MP3, EOM
   Marcus Kettner         : VPT2
   Christian Kollmar      : KDIIS, OOCD, Brueckner-CCSD(T), CCSD density, CASPT2, CASPT2-K
   Simone Kossmann        : Meta GGA functionals, TD-DFT gradient, OOMP2, MP2 Hessian
   Martin Krupicka        : Initial AUTO-CI
   Lucas Lang             : DCDCAS
   Marvin Lechner         : AUTO-CI (C++ implementation), FIC-MRCC
   Dagmar Lenk            : GEPOL surface, SMD
   Dimitrios Liakos       : Extrapolation schemes; Compound Job, initial MDCI parallelization
   Dimitrios Manganas     : Further ROCIS development; embedding schemes
   Dimitrios Pantazis     : SARC Basis sets
   Anastasios Papadopoulos: AUTO-CI, single reference methods and gradients
   Taras Petrenko         : DFT Hessian,TD-DFT gradient, ASA, ECA, R-Raman, ABS, FL, XAS/XES, NRVS
   Peter Pinski           : DLPNO-MP2, DLPNO-MP2 Gradient
   Christoph Reimann      : Effective Core Potentials
   Marius Retegan         : Local ZFS, SOC
   Christoph Riplinger    : Optimizer, TS searches, QM/MM, DLPNO-CCSD(T), (RO)-DLPNO pert. Triples
   Tobias Risthaus        : Range-separated hybrids, TD-DFT gradient, RPA, STAB
   Michael Roemelt        : Original ROCIS implementation
   Masaaki Saitow         : Open-shell DLPNO-CCSD energy and density
   Barbara Sandhoefer     : DKH picture change effects
   Avijit Sen             : IP-ROCIS
   Kantharuban Sivalingam : CASSCF convergence, NEVPT2, FIC-MRCI
   Bernardo de Souza      : ESD, SOC TD-DFT
   Georgi Stoychev        : AutoAux, RI-MP2 NMR, DLPNO-MP2 response
   Willem Van den Heuvel  : Paramagnetic NMR
   Boris Wezisla          : Elementary symmetry handling
   Frank Wennmohs         : Technical directorship


 We gratefully acknowledge several colleagues who have allowed us to
 interface, adapt or use parts of their codes:
   Stefan Grimme, W. Hujo, H. Kruse, P. Pracht,  : VdW corrections, initial TS optimization,
                  C. Bannwarth, S. Ehlert          DFT functionals, gCP, sTDA/sTD-DF
   Ed Valeev, F. Pavosevic, A. Kumar             : LibInt (2-el integral package), F12 methods
   Garnet Chan, S. Sharma, J. Yang, R. Olivares  : DMRG
   Ulf Ekstrom                                   : XCFun DFT Library
   Mihaly Kallay                                 : mrcc  (arbitrary order and MRCC methods)
   Jiri Pittner, Ondrej Demel                    : Mk-CCSD
   Frank Weinhold                                : gennbo (NPA and NBO analysis)
   Christopher J. Cramer and Donald G. Truhlar   : smd solvation model
   Lars Goerigk                                  : TD-DFT with DH, B97 family of functionals
   V. Asgeirsson, H. Jonsson                     : NEB implementation
   FAccTs GmbH                                   : IRC, NEB, NEB-TS, DLPNO-Multilevel, CI-OPT
                                                   MM, QMMM, 2- and 3-layer-ONIOM, Crystal-QMMM,
                                                   LR-CPCM, SF, NACMEs, symmetry and pop. for TD-DFT,
                                                   nearIR, NL-DFT gradient (VV10), updates on ESD,
                                                   ML-optimized integration grids
   S Lehtola, MJT Oliveira, MAL Marques          : LibXC Library
   Liviu Ungur et al                             : ANISO software


 Your calculation uses the libint2 library for the computation of 2-el integrals
 For citations please refer to: http://libint.valeyev.net

 Your ORCA version has been built with support for libXC version: 5.1.0
 For citations please refer to: https://tddft.org/programs/libxc/

 This ORCA versions uses:
   CBLAS   interface :  Fast vector & matrix operations
   LAPACKE interface :  Fast linear algebra routines
   SCALAPACK package :  Parallel linear algebra routines
   Shared memory     :  Shared parallel matrices
   BLAS/LAPACK       :  OpenBLAS 0.3.15  USE64BITINT DYNAMIC_ARCH NO_AFFINITY SkylakeX SINGLE_THREADED
        Core in use  :  SkylakeX
   Copyright (c) 2011-2014, The OpenBLAS Project


================================================================================

----- Orbital basis set information -----
Your calculation utilizes the basis: def2-TZVPP
   F. Weigend and R. Ahlrichs, Phys. Chem. Chem. Phys. 7, 3297 (2005).

----- AuxJ basis set information -----
Your calculation utilizes the auxiliary basis: def2/J
   F. Weigend, Phys. Chem. Chem. Phys. 8, 1057 (2006).

================================================================================
                                        WARNINGS
                       Please study these warnings very carefully!
================================================================================


WARNING: Geometry Optimization
  ===> : Switching off AutoStart
         For restart on a previous wavefunction, please use MOREAD

INFO   : the flag for use of the SHARK integral package has been found!

================================================================================
                                       INPUT FILE
================================================================================
NAME = Opt.inp
|  1> ! Opt B3LYP def2-TZVPP Def2/J XYZFile SlowConv CPCM(WATER)
|  2> %scf MaxIter 2000000 end
|  3> %PAL NPROCS 40 END
|  4> 
|  5> * xyz 0 1
|  6> H          0.75357        0.37328        2.04775
|  7> C          0.33994        0.28626        1.04586
|  8> C         -0.84134        0.95035        0.71872
|  9> H         -1.34919        1.55547        1.46565
| 10> C         -1.37222        0.83922       -0.56567
| 11> H         -2.29390        1.35980       -0.81416
| 12> C         -0.72073        0.06272       -1.52448
| 13> O         -1.23371       -0.05060       -2.78206
| 14> C          0.46086       -0.60133       -1.19667
| 15> H          0.97042       -1.20715       -1.94241
| 16> C          0.99084       -0.48955        0.08786
| 17> H          1.91212       -1.00793        0.34171
| 18> H         -2.05527        0.46728       -2.85410
| 19> *
| 20> 
| 21> 
| 22>                          ****END OF INPUT****
================================================================================

                       *****************************
                       * Geometry Optimization Run *
                       *****************************

Geometry optimization settings:
Update method            Update   .... BFGS
Choice of coordinates    CoordSys .... Z-matrix Internals
Initial Hessian          InHess   .... Almoef's Model

Convergence Tolerances:
Energy Change            TolE     ....  5.0000e-06 Eh
Max. Gradient            TolMAXG  ....  3.0000e-04 Eh/bohr
RMS Gradient             TolRMSG  ....  1.0000e-04 Eh/bohr
Max. Displacement        TolMAXD  ....  4.0000e-03 bohr
RMS Displacement         TolRMSD  ....  2.0000e-03 bohr
Strict Convergence                ....  False
------------------------------------------------------------------------------
                        ORCA OPTIMIZATION COORDINATE SETUP
------------------------------------------------------------------------------

The optimization will be done in new redundant internal coordinates
Making redundant internal coordinates   ...  (new redundants) done
Evaluating the initial hessian          ...  (Almloef) done
Evaluating the coordinates              ...  done
Calculating the B-matrix                .... done
Calculating the G-matrix                .... done
Diagonalizing the G-matrix              .... done
The first mode is                       ....   25
The number of degrees of freedom        ....   33

    -----------------------------------------------------------------
                    Redundant Internal Coordinates


    -----------------------------------------------------------------
         Definition                    Initial Value    Approx d2E/dq
    -----------------------------------------------------------------
      1. B(C   1,H   0)                  1.0874         0.363552   
      2. B(C   2,C   1)                  1.3941         0.615502   
      3. B(H   3,C   2)                  1.0872         0.363834   
      4. B(C   4,C   2)                  1.3942         0.615192   
      5. B(H   5,C   4)                  1.0873         0.363675   
      6. B(C   6,C   4)                  1.3952         0.612873   
      7. B(O   7,C   6)                  1.3629         0.618175   
      8. B(C   8,C   6)                  1.3945         0.614596   
      9. B(H   9,C   8)                  1.0876         0.363336   
     10. B(C  10,C   8)                  1.3941         0.615557   
     11. B(C  10,C   1)                  1.3940         0.615618   
     12. B(H  11,C  10)                  1.0872         0.363878   
     13. B(H  12,O   7)                  0.9738         0.494194   
     14. A(C   2,C   1,C  10)          119.9663         0.432945   
     15. A(H   0,C   1,C  10)          120.0067         0.353055   
     16. A(H   0,C   1,C   2)          120.0270         0.353044   
     17. A(C   1,C   2,C   4)          120.0568         0.432891   
     18. A(C   1,C   2,H   3)          119.9826         0.353090   
     19. A(H   3,C   2,C   4)          119.9606         0.353060   
     20. A(H   5,C   4,C   6)          120.3455         0.352808   
     21. A(C   2,C   4,C   6)          119.9755         0.432558   
     22. A(C   2,C   4,H   5)          119.6790         0.353034   
     23. A(O   7,C   6,C   8)          119.7518         0.430321   
     24. A(C   4,C   6,C   8)          119.9422         0.432483   
     25. A(C   4,C   6,O   7)          120.3060         0.430105   
     26. A(C   6,O   7,H  12)          109.9730         0.366716   
     27. A(H   9,C   8,C  10)          119.8920         0.353014   
     28. A(C   6,C   8,C  10)          120.0368         0.432823   
     29. A(C   6,C   8,H   9)          120.0712         0.352920   
     30. A(C   8,C  10,H  11)          119.9395         0.353103   
     31. A(C   1,C  10,H  11)          120.0381         0.353109   
     32. A(C   1,C  10,C   8)          120.0224         0.432952   
     33. D(C   4,C   2,C   1,H   0)    179.9994         0.026192   
     34. D(H   3,C   2,C   1,C  10)   -179.9999         0.026192   
     35. D(C   4,C   2,C   1,C  10)      0.0004         0.026192   
     36. D(H   3,C   2,C   1,H   0)     -0.0009         0.026192   
     37. D(H   5,C   4,C   2,C   1)    179.9999         0.026164   
     38. D(C   6,C   4,C   2,H   3)   -179.9998         0.026164   
     39. D(H   5,C   4,C   2,H   3)      0.0002         0.026164   
     40. D(C   6,C   4,C   2,C   1)     -0.0001         0.026164   
     41. D(C   8,C   6,C   4,H   5)    179.9999         0.025956   
     42. D(C   8,C   6,C   4,C   2)     -0.0000         0.025956   
     43. D(O   7,C   6,C   4,H   5)      0.0001         0.025956   
     44. D(O   7,C   6,C   4,C   2)   -179.9999         0.025956   
     45. D(H  12,O   7,C   6,C   8)   -179.9985         0.028025   
     46. D(H  12,O   7,C   6,C   4)      0.0013         0.028025   
     47. D(H   9,C   8,C   6,C   4)   -179.9996         0.026110   
     48. D(C  10,C   8,C   6,O   7)    179.9997         0.026110   
     49. D(C  10,C   8,C   6,C   4)     -0.0001         0.026110   
     50. D(H   9,C   8,C   6,O   7)      0.0002         0.026110   
     51. D(H  11,C  10,C   8,H   9)     -0.0003         0.026197   
     52. D(H  11,C  10,C   8,C   6)   -179.9998         0.026197   
     53. D(C   1,C  10,C   8,H   9)    179.9999         0.026197   
     54. D(C   1,C  10,C   8,C   6)      0.0004         0.026197   
     55. D(H  11,C  10,C   1,C   2)    179.9997         0.026202   
     56. D(H  11,C  10,C   1,H   0)      0.0007         0.026202   
     57. D(C   8,C  10,C   1,C   2)     -0.0006         0.026202   
     58. D(C   8,C  10,C   1,H   0)   -179.9995         0.026202   
    -----------------------------------------------------------------

Number of atoms                         .... 13
Number of degrees of freedom            .... 58

         *************************************************************
         *                GEOMETRY OPTIMIZATION CYCLE   1            *
         *************************************************************
---------------------------------
CARTESIAN COORDINATES (ANGSTROEM)
---------------------------------
  H      0.753570    0.373280    2.047750
  C      0.339940    0.286260    1.045860
  C     -0.841340    0.950350    0.718720
  H     -1.349190    1.555470    1.465650
  C     -1.372220    0.839220   -0.565670
  H     -2.293900    1.359800   -0.814160
  C     -0.720730    0.062720   -1.524480
  O     -1.233710   -0.050600   -2.782060
  C      0.460860   -0.601330   -1.196670
  H      0.970420   -1.207150   -1.942410
  C      0.990840   -0.489550    0.087860
  H      1.912120   -1.007930    0.341710
  H     -2.055270    0.467280   -2.854100

----------------------------
CARTESIAN COORDINATES (A.U.)
----------------------------
  NO LB      ZA    FRAG     MASS         X           Y           Z
   0 H     1.0000    0     1.008    1.424041    0.705397    3.869687
   1 C     6.0000    0    12.011    0.642394    0.540953    1.976389
   2 C     6.0000    0    12.011   -1.589902    1.795901    1.358184
   3 H     1.0000    0     1.008   -2.549600    2.939412    2.769677
   4 C     6.0000    0    12.011   -2.593120    1.585896   -1.068961
   5 H     1.0000    0     1.008   -4.334843    2.569650   -1.538539
   6 C     6.0000    0    12.011   -1.361982    0.118524   -2.880850
   7 O     8.0000    0    15.999   -2.331374   -0.095620   -5.257331
   8 C     6.0000    0    12.011    0.870899   -1.136349   -2.261379
   9 H     1.0000    0     1.008    1.833828   -2.281183   -3.670623
  10 C     6.0000    0    12.011    1.872416   -0.925115    0.166031
  11 H     1.0000    0     1.008    3.613383   -1.904712    0.645738
  12 H     1.0000    0     1.008   -3.883897    0.883031   -5.393467

--------------------------------
INTERNAL COORDINATES (ANGSTROEM)
--------------------------------
 H      0   0   0     0.000000000000     0.00000000     0.00000000
 C      1   0   0     1.087403250593     0.00000000     0.00000000
 C      2   1   0     1.394079820563   120.02699965     0.00000000
 H      3   2   1     1.087191915809   119.98255639     0.00000000
 C      3   2   1     1.394217028801   120.05679419   179.99937735
 H      5   3   2     1.087310829018   119.67904173   179.99991061
 C      5   3   2     1.395244812282   119.97546019     0.00000000
 O      7   5   3     1.362900348228   120.30601874   180.00013723
 C      7   5   3     1.394480809011   119.94222138     0.00000000
 H      9   7   5     1.087564900868   120.07115647   180.00036587
 C      2   1   3     1.394028681950   120.00672930   179.99895875
 H     11   2   1     1.087158905266   120.03806916     0.00000000
 H      8   7   5     0.973832783182   109.97298737     0.00000000

---------------------------
INTERNAL COORDINATES (A.U.)
---------------------------
 H      0   0   0     0.000000000000     0.00000000     0.00000000
 C      1   0   0     2.054894340756     0.00000000     0.00000000
 C      2   1   0     2.634429069689   120.02699965     0.00000000
 H      3   2   1     2.054494975892   119.98255639     0.00000000
 C      3   2   1     2.634688355684   120.05679419   179.99937735
 H      5   3   2     2.054719689291   119.67904173   179.99991061
 C      5   3   2     2.636630584987   119.97546019     0.00000000
 O      7   5   3     2.575508405977   120.30601874   180.00013723
 C      7   5   3     2.635186828040   119.94222138     0.00000000
 H      9   7   5     2.055199815506   120.07115647   180.00036587
 C      2   1   3     2.634332431717   120.00672930   179.99895875
 H     11   2   1     2.054432595007   120.03806916     0.00000000
 H      8   7   5     1.840277260448   109.97298737     0.00000000

---------------------
BASIS SET INFORMATION
---------------------
There are 3 groups of distinct atoms

 Group   1 Type H   : 5s2p1d contracted to 3s2p1d pattern {311/11/1}
 Group   2 Type C   : 11s6p2d1f contracted to 5s3p2d1f pattern {62111/411/11/1}
 Group   3 Type O   : 11s6p2d1f contracted to 5s3p2d1f pattern {62111/411/11/1}

Atom   0H    basis set group =>   1
Atom   1C    basis set group =>   2
Atom   2C    basis set group =>   2
Atom   3H    basis set group =>   1
Atom   4C    basis set group =>   2
Atom   5H    basis set group =>   1
Atom   6C    basis set group =>   2
Atom   7O    basis set group =>   3
Atom   8C    basis set group =>   2
Atom   9H    basis set group =>   1
Atom  10C    basis set group =>   2
Atom  11H    basis set group =>   1
Atom  12H    basis set group =>   1
---------------------------------
AUXILIARY/J BASIS SET INFORMATION
---------------------------------
There are 3 groups of distinct atoms

 Group   1 Type H   : 5s2p1d contracted to 3s1p1d pattern {311/2/1}
 Group   2 Type C   : 12s5p4d2f1g contracted to 6s4p3d1f1g pattern {711111/2111/211/2/1}
 Group   3 Type O   : 12s5p4d2f1g contracted to 6s4p3d1f1g pattern {711111/2111/211/2/1}

Atom   0H    basis set group =>   1
Atom   1C    basis set group =>   2
Atom   2C    basis set group =>   2
Atom   3H    basis set group =>   1
Atom   4C    basis set group =>   2
Atom   5H    basis set group =>   1
Atom   6C    basis set group =>   2
Atom   7O    basis set group =>   3
Atom   8C    basis set group =>   2
Atom   9H    basis set group =>   1
Atom  10C    basis set group =>   2
Atom  11H    basis set group =>   1
Atom  12H    basis set group =>   1


           ************************************************************
           *        Program running with 40 parallel MPI-processes    *
           *              working on a common directory               *
           ************************************************************
------------------------------------------------------------------------------
                           ORCA GTO INTEGRAL CALCULATION
                           -- RI-GTO INTEGRALS CHOSEN --
------------------------------------------------------------------------------
------------------------------------------------------------------------------
                   ___                                                        
                  /   \      - P O W E R E D   B Y -                         
                 /     \                                                     
                 |  |  |   _    _      __       _____    __    __             
                 |  |  |  | |  | |    /  \     |  _  \  |  |  /  |          
                  \  \/   | |  | |   /    \    | | | |  |  | /  /          
                 / \  \   | |__| |  /  /\  \   | |_| |  |  |/  /          
                |  |  |   |  __  | /  /__\  \  |    /   |      \           
                |  |  |   | |  | | |   __   |  |    \   |  |\   \          
                \     /   | |  | | |  |  |  |  | |\  \  |  | \   \       
                 \___/    |_|  |_| |__|  |__|  |_| \__\ |__|  \__/        
                                                                              
                      - O R C A' S   B I G   F R I E N D -                    
                                      &                                       
                       - I N T E G R A L  F E E D E R -                       
                                                                              
 v1 FN, 2020, v2 2021                                                         
------------------------------------------------------------------------------


Reading SHARK input file Opt.SHARKINP.tmp ... ok
----------------------
SHARK INTEGRAL PACKAGE
----------------------

Number of atoms                             ...     13
Number of basis functions                   ...    301
Number of shells                            ...    113
Maximum angular momentum                    ...      3
Integral batch strategy                     ... SHARK/LIBINT Hybrid
RI-J (if used) integral strategy            ... SPLIT-RIJ (Revised 2003 algorithm where possible)
Printlevel                                  ...      1
Contraction scheme used                     ... SEGMENTED contraction
Coulomb Range Separation                    ... NOT USED
Exchange Range Separation                   ... NOT USED
Finite Nucleus Model                        ... NOT USED
Auxiliary Coulomb fitting basis             ... AVAILABLE
   # of basis functions in Aux-J            ...    409
   # of shells in Aux-J                     ...    135
   Maximum angular momentum in Aux-J        ...      4
Auxiliary J/K fitting basis                 ... NOT available
Auxiliary Correlation fitting basis         ... NOT available
Auxiliary 'external' fitting basis          ... NOT available
Integral threshold                          ...     2.500000e-11
Primitive cut-off                           ...     2.500000e-12
Primitive pair pre-selection threshold      ...     2.500000e-12

Calculating pre-screening integrals         ... done (  0.0 sec) Dimension = 113
Organizing shell pair data                  ... done (  0.1 sec)
Shell pair information
Total number of shell pairs                 ...      6441
Shell pairs after pre-screening             ...      5994
Total number of primitive shell pairs       ...     17938
Primitive shell pairs kept                  ...     13207
          la=0 lb=0:   1292 shell pairs
          la=1 lb=0:   1645 shell pairs
          la=1 lb=1:    539 shell pairs
          la=2 lb=0:    963 shell pairs
          la=2 lb=1:    619 shell pairs
          la=2 lb=2:    192 shell pairs
          la=3 lb=0:    355 shell pairs
          la=3 lb=1:    226 shell pairs
          la=3 lb=2:    135 shell pairs
          la=3 lb=3:     28 shell pairs

Calculating one electron integrals          ... done (  0.0 sec)
Calculating RI/J V-Matrix + Cholesky decomp.... done (  0.2 sec)
Calculating Nuclear repulsion               ... done (  0.0 sec) ENN=    271.171923704127 Eh

SHARK setup successfully completed in   1.0 seconds

Maximum memory used throughout the entire GTOINT-calculation: 19.4 MB


           ************************************************************
           *        Program running with 40 parallel MPI-processes    *
           *              working on a common directory               *
           ************************************************************
-------------------------------------------------------------------------------
                                 ORCA SCF
-------------------------------------------------------------------------------

------------
SCF SETTINGS
------------
Hamiltonian:
 Density Functional     Method          .... DFT(GTOs)
 Exchange Functional    Exchange        .... B88
   X-Alpha parameter    XAlpha          ....  0.666667
   Becke's b parameter  XBeta           ....  0.004200
 Correlation Functional Correlation     .... LYP
 LDA part of GGA corr.  LDAOpt          .... VWN-5
 Gradients option       PostSCFGGA      .... off
 Hybrid DFT is turned on
   Fraction HF Exchange ScalHFX         ....  0.200000
   Scaling of DF-GGA-X  ScalDFX         ....  0.720000
   Scaling of DF-GGA-C  ScalDFC         ....  0.810000
   Scaling of DF-LDA-C  ScalLDAC        ....  1.000000
   Perturbative correction              ....  0.000000
   Density functional embedding theory  .... OFF
   NL short-range parameter             ....  4.800000
 RI-approximation to the Coulomb term is turned on
   Number of AuxJ basis functions       .... 409
   RIJ-COSX (HFX calculated with COS-X)).... on


General Settings:
 Integral files         IntName         .... Opt
 Hartree-Fock type      HFTyp           .... RHF
 Total Charge           Charge          ....    0
 Multiplicity           Mult            ....    1
 Number of Electrons    NEL             ....   50
 Basis Dimension        Dim             ....  301
 Nuclear Repulsion      ENuc            ....    271.1719237041 Eh

Convergence Acceleration:
 DIIS                   CNVDIIS         .... on
   Start iteration      DIISMaxIt       ....     0
   Startup error        DIISStart       ....  0.200000
   # of expansion vecs  DIISMaxEq       ....     5
   Bias factor          DIISBfac        ....   1.050
   Max. coefficient     DIISMaxC        ....  10.000
 Trust-Rad. Augm. Hess. CNVTRAH         .... auto
   Auto Start mean grad. ratio tolernc. ....  1.125000
   Auto Start start iteration           ....    20
   Auto Start num. interpolation iter.  ....    10
   Max. Number of Micro iterations      ....    16
   Max. Number of Macro iterations      .... Maxiter - #DIIS iter
   Number of Davidson start vectors     ....     2
   Converg. threshold I  (grad. norm)   ....   1.000e-05
   Converg. threshold II (energy diff.) ....   1.000e-08
   Grad. Scal. Fac. for Micro threshold ....   0.100
   Minimum threshold for Micro iter.    ....   0.010
   NR start threshold (gradient norm)   ....   0.001
   Initial trust radius                 ....   0.400
   Minimum AH scaling param. (alpha)    ....   1.000
   Maximum AH scaling param. (alpha)    .... 1000.000
   Orbital update algorithm             .... Taylor
   White noise on init. David. guess    .... on
   Maximum white noise                  ....   0.010
   Quad. conv. algorithm                .... NR
 SOSCF                  CNVSOSCF        .... on
   Start iteration      SOSCFMaxIt      ....   150
   Startup grad/error   SOSCFStart      ....  0.001000
 Level Shifting         CNVShift        .... on
   Level shift para.    LevelShift      ....    0.2500
   Turn off err/grad.   ShiftErr        ....    0.0000
 Zerner damping         CNVZerner       .... off
 Static damping         CNVDamp         .... on
   Fraction old density DampFac         ....    0.8500
   Max. Damping (<1)    DampMax         ....    0.9800
   Min. Damping (>=0)   DampMin         ....    0.0000
   Turn off err/grad.   DampErr         ....    0.0300
 Fernandez-Rico         CNVRico         .... off

SCF Procedure:
 Maximum # iterations   MaxIter         .... 2000000
 SCF integral mode      SCFMode         .... Direct
   Integral package                     .... SHARK and LIBINT hybrid scheme
 Reset frequency        DirectResetFreq ....    20
 Integral Threshold     Thresh          ....  2.500e-11 Eh
 Primitive CutOff       TCut            ....  2.500e-12 Eh

Convergence Tolerance:
 Convergence Check Mode ConvCheckMode   .... Total+1el-Energy
 Convergence forced     ConvForced      .... 0
 Energy Change          TolE            ....  1.000e-08 Eh
 1-El. energy change                    ....  1.000e-05 Eh
 Orbital Gradient       TolG            ....  1.000e-05
 Orbital Rotation angle TolX            ....  1.000e-05
 DIIS Error             TolErr          ....  5.000e-07


Diagonalization of the overlap matrix:
Smallest eigenvalue                        ... 1.089e-05
Time for diagonalization                   ...    0.016 sec
Threshold for overlap eigenvalues          ... 1.000e-08
Number of eigenvalues below threshold      ... 0
Time for construction of square roots      ...    0.034 sec
Total time needed                          ...    0.052 sec

Time for model grid setup =    0.333 sec

------------------------------
INITIAL GUESS: MODEL POTENTIAL
------------------------------
Loading Hartree-Fock densities                     ... done
Calculating cut-offs                               ... done
Initializing the effective Hamiltonian             ... done
Setting up the integral package (SHARK)            ... done
Starting the Coulomb interaction                   ... done (   0.2 sec)
Reading the grid                                   ... done
Mapping shells                                     ... done
Starting the XC term evaluation                    ... done (   0.0 sec)
  promolecular density results
     # of electrons  =     49.993957580
     EX              =    -40.827107865
     EC              =     -1.680838840
     EX+EC           =    -42.507946705
Transforming the Hamiltonian                       ... done (   0.1 sec)
Diagonalizing the Hamiltonian                      ... done (   0.0 sec)
Back transforming the eigenvectors                 ... done (   0.0 sec)
Now organizing SCF variables                       ... done
                      ------------------
                      INITIAL GUESS DONE (   0.8 sec)
                      ------------------
-------------------
DFT GRID GENERATION
-------------------

General Integration Accuracy     IntAcc      ... 4.388
Radial Grid Type                 RadialGrid  ... OptM3 with GC (2021)
Angular Grid (max. ang.)         AngularGrid ... 4 (Lebedev-302)
Angular grid pruning method      GridPruning ... 4 (adaptive)
Weight generation scheme         WeightScheme... Becke
Basis function cutoff            BFCut       ... 1.0000e-11
Integration weight cutoff        WCut        ... 1.0000e-14
Angular grids for H and He will be reduced by one unit
Partially contracted basis set               ... off
Rotationally invariant grid construction     ... off

Total number of grid points                  ...    61689
Total number of batches                      ...      971
Average number of points per batch           ...       63
Average number of grid points per atom       ...     4745
Time for grid setup =    0.283 sec

--------------------
COSX GRID GENERATION
--------------------

GRIDX 1
-------
General Integration Accuracy     IntAcc      ... 3.816
Radial Grid Type                 RadialGrid  ... OptM3 with GC (2021)
Angular Grid (max. ang.)         AngularGrid ... 1 (Lebedev-50)
Angular grid pruning method      GridPruning ... 4 (adaptive)
Weight generation scheme         WeightScheme... Becke
Basis function cutoff            BFCut       ... 1.0000e-11
Integration weight cutoff        WCut        ... 1.0000e-14
Angular grids for H and He will be reduced by one unit
Partially contracted basis set               ... on
Rotationally invariant grid construction     ... off

Total number of grid points                  ...     7901
Total number of batches                      ...      127
Average number of points per batch           ...       62
Average number of grid points per atom       ...      608
UseSFitting                                  ... on

GRIDX 2
-------
General Integration Accuracy     IntAcc      ... 4.020
Radial Grid Type                 RadialGrid  ... OptM3 with GC (2021)
Angular Grid (max. ang.)         AngularGrid ... 2 (Lebedev-110)
Angular grid pruning method      GridPruning ... 4 (adaptive)
Weight generation scheme         WeightScheme... Becke
Basis function cutoff            BFCut       ... 1.0000e-11
Integration weight cutoff        WCut        ... 1.0000e-14
Angular grids for H and He will be reduced by one unit
Partially contracted basis set               ... on
Rotationally invariant grid construction     ... off

Total number of grid points                  ...    17349
Total number of batches                      ...      278
Average number of points per batch           ...       62
Average number of grid points per atom       ...     1335
UseSFitting                                  ... on

GRIDX 3
-------
General Integration Accuracy     IntAcc      ... 4.338
Radial Grid Type                 RadialGrid  ... OptM3 with GC (2021)
Angular Grid (max. ang.)         AngularGrid ... 3 (Lebedev-194)
Angular grid pruning method      GridPruning ... 4 (adaptive)
Weight generation scheme         WeightScheme... Becke
Basis function cutoff            BFCut       ... 1.0000e-11
Integration weight cutoff        WCut        ... 1.0000e-14
Angular grids for H and He will be reduced by one unit
Partially contracted basis set               ... on
Rotationally invariant grid construction     ... off

Total number of grid points                  ...    38149
Total number of batches                      ...      605
Average number of points per batch           ...       63
Average number of grid points per atom       ...     2935
UseSFitting                                  ... on

Time for X-Grid setup             =    1.129 sec


--------------------
CPCM SOLVATION MODEL
--------------------
CPCM parameters:
  Epsilon                                         ...      80.4000
  Refrac                                          ...       1.3300
  Rsolv                                           ...       1.3000
  Surface type                                    ... GAUSSIAN VDW
  Epsilon function type                           ...         CPCM
Radii:
 Radius for H  used is    2.4944 Bohr (=   1.3200 Ang.)
 Radius for C  used is    3.8550 Bohr (=   2.0400 Ang.)
 Radius for O  used is    3.4469 Bohr (=   1.8240 Ang.)
Calculating surface                               ...        done! (  0.0s)
GEPOL surface points                              ...          764
GEPOL Volume                                      ...     829.7953
GEPOL Surface-area                                ...     481.3271
Calculating surface distance matrix               ...        done! (  0.0s)
Performing Cholesky decomposition & store         ...        done! (  0.0s)
Overall time for CPCM initialization              ...                 0.0s
--------------
SCF ITERATIONS
--------------
ITER       Energy         Delta-E        Max-DP      RMS-DP      [F,P]     Damp
               ***  Starting incremental Fock matrix formation  ***
  0   -307.2241096800   0.000000000000 0.04375137  0.00068624  0.2319403 0.8500
  1   -307.2747374243  -0.050627744287 0.07029852  0.00091554  0.1675939 0.8500
                               ***Turning on DIIS***
  2   -307.3087888079  -0.034051383631 0.05681959  0.00074763  0.1111328 0.8500
  3   -307.3309775236  -0.022188715668 0.02382143  0.00037518  0.0717087 0.8500
  4   -307.3471306652  -0.016153141582 0.00884494  0.00019419  0.0548655 0.8500
  5   -307.3594955795  -0.012364914325 0.00562480  0.00012427  0.0451623 0.8500
  6   -307.3694405971  -0.009945017600 0.00406850  0.00009465  0.0378718 0.8500
  7   -307.3776429463  -0.008202349221 0.00329317  0.00007928  0.0319577 0.8500
  8   -307.3845079655  -0.006865019202 0.01817513  0.00044962  0.0266924 0.0000
  9   -307.4214123862  -0.036904420608 0.00247927  0.00003424  0.0021689 0.0000
                      *** Initiating the SOSCF procedure ***
                           *** Shutting down DIIS ***
                      *** Re-Reading the Fockian *** 
                      *** Removing any level shift *** 
ITER      Energy       Delta-E        Grad      Rot      Max-DP    RMS-DP
 10   -307.42142841  -0.0000160253  0.000110  0.000110  0.000573  0.000011
               *** Restarting incremental Fock matrix formation ***
 11   -307.42143815  -0.0000097416  0.000051  0.000113  0.000351  0.000009
 12   -307.42143813   0.0000000237  0.000063  0.000045  0.000267  0.000004
 13   -307.42143826  -0.0000001303  0.000012  0.000015  0.000083  0.000001
 14   -307.42143826   0.0000000020  0.000011  0.000009  0.000037  0.000001
                  ***Gradient check signals convergence***
              ***Rediagonalizing the Fockian in SOSCF/NRSCF***

               *****************************************************
               *                     SUCCESS                       *
               *           SCF CONVERGED AFTER  15 CYCLES          *
               *****************************************************

Old exchange energy                            =     -8.295540107 Eh
New exchange energy                            =     -8.295529594 Eh
Exchange energy change after final integration =      0.000010513 Eh
Total energy after final integration           =   -307.421427749 Eh
Final COS-X integration done in                =     0.721 sec

----------------
TOTAL SCF ENERGY
----------------

Total Energy       :         -307.42142775 Eh           -8365.36234 eV

Components:
Nuclear Repulsion  :          271.17192370 Eh            7378.96318 eV
Electronic Energy  :         -578.59335145 Eh          -15744.32552 eV
One Electron Energy:         -953.04651071 Eh          -25933.71400 eV
Two Electron Energy:          374.45315926 Eh           10189.38848 eV
Max COSX asymmetry :            0.00000079 Eh               0.00002 eV
CPCM Dielectric    :           -0.01123447 Eh              -0.30571 eV

Virial components:
Potential Energy   :         -613.38161990 Eh          -16690.96243 eV
Kinetic Energy     :          305.96019216 Eh            8325.60009 eV
Virial Ratio       :            2.00477590


DFT components:
N(Alpha)           :       25.000025761044 electrons
N(Beta)            :       25.000025761044 electrons
N(Total)           :       50.000051522088 electrons
E(X)               :      -32.970999079613 Eh       
E(C)               :       -1.990053654961 Eh       
E(XC)              :      -34.961052734574 Eh       
DFET-embed. en.    :        0.000000000000 Eh       
CPCM Solvation Model Properties:
Surface-charge          :           -0.02294230
Charge-correction       :            0.00017797 Eh               0.00484 eV
Free-energy (cav+disp)  :  This term is not implemented in the current solvation scheme

---------------
SCF CONVERGENCE
---------------

  Last Energy change         ...   -4.2869e-09  Tolerance :   1.0000e-08
  Last MAX-Density change    ...    7.7716e-16  Tolerance :   1.0000e-07
  Last RMS-Density change    ...    1.4495e-17  Tolerance :   5.0000e-09
  Last Orbital Gradient      ...    9.7488e-07  Tolerance :   1.0000e-05
  Last Orbital Rotation      ...    2.0969e-06  Tolerance :   1.0000e-05

             **** THE GBW FILE WAS UPDATED (Opt.gbw) ****
             **** DENSITY Opt.scfp WAS UPDATED ****
             **** ENERGY FILE WAS UPDATED (Opt.en.tmp) ****
             **** THE GBW FILE WAS UPDATED (Opt.gbw) ****
             **** DENSITY Opt.scfp WAS UPDATED ****
----------------
ORBITAL ENERGIES
----------------

  NO   OCC          E(Eh)            E(eV) 
   0   2.0000     -19.155465      -521.2467 
   1   2.0000     -10.236607      -278.5522 
   2   2.0000     -10.176330      -276.9120 
   3   2.0000     -10.176153      -276.9072 
   4   2.0000     -10.171762      -276.7877 
   5   2.0000     -10.171453      -276.7793 
   6   2.0000     -10.166915      -276.6558 
   7   2.0000      -1.060751       -28.8645 
   8   2.0000      -0.851653       -23.1747 
   9   2.0000      -0.749197       -20.3867 
  10   2.0000      -0.737888       -20.0789 
  11   2.0000      -0.623209       -16.9584 
  12   2.0000      -0.602473       -16.3941 
  13   2.0000      -0.544624       -14.8200 
  14   2.0000      -0.497394       -13.5348 
  15   2.0000      -0.467683       -12.7263 
  16   2.0000      -0.438545       -11.9334 
  17   2.0000      -0.422372       -11.4933 
  18   2.0000      -0.415779       -11.3139 
  19   2.0000      -0.391233       -10.6460 
  20   2.0000      -0.359530        -9.7833 
  21   2.0000      -0.342948        -9.3321 
  22   2.0000      -0.340530        -9.2663 
  23   2.0000      -0.259658        -7.0657 
  24   2.0000      -0.230350        -6.2681 
  25   0.0000      -0.016162        -0.4398 
  26   0.0000       0.000875         0.0238 
  27   0.0000       0.049719         1.3529 
  28   0.0000       0.061006         1.6601 
  29   0.0000       0.089863         2.4453 
  30   0.0000       0.103082         2.8050 
  31   0.0000       0.118692         3.2298 
  32   0.0000       0.131297         3.5728 
  33   0.0000       0.141258         3.8438 
  34   0.0000       0.144691         3.9372 
  35   0.0000       0.186073         5.0633 
  36   0.0000       0.201643         5.4870 
  37   0.0000       0.202687         5.5154 
  38   0.0000       0.221469         6.0265 
  39   0.0000       0.224372         6.1055 
  40   0.0000       0.240536         6.5453 
  41   0.0000       0.242009         6.5854 
  42   0.0000       0.252084         6.8595 
  43   0.0000       0.256993         6.9931 
  44   0.0000       0.279775         7.6131 
  45   0.0000       0.315636         8.5889 
  46   0.0000       0.321733         8.7548 
  47   0.0000       0.326434         8.8827 
  48   0.0000       0.332289         9.0420 
  49   0.0000       0.348837         9.4923 
  50   0.0000       0.353095         9.6082 
  51   0.0000       0.363654         9.8955 
  52   0.0000       0.393870        10.7178 
  53   0.0000       0.400124        10.8879 
  54   0.0000       0.423970        11.5368 
  55   0.0000       0.430665        11.7190 
  56   0.0000       0.433220        11.7885 
  57   0.0000       0.442211        12.0332 
  58   0.0000       0.452322        12.3083 
  59   0.0000       0.467938        12.7332 
  60   0.0000       0.481587        13.1046 
  61   0.0000       0.487277        13.2595 
  62   0.0000       0.496641        13.5143 
  63   0.0000       0.498660        13.5692 
  64   0.0000       0.514464        13.9993 
  65   0.0000       0.549043        14.9402 
  66   0.0000       0.572932        15.5903 
  67   0.0000       0.616909        16.7869 
  68   0.0000       0.618933        16.8420 
  69   0.0000       0.638773        17.3819 
  70   0.0000       0.650642        17.7049 
  71   0.0000       0.668776        18.1983 
  72   0.0000       0.671690        18.2776 
  73   0.0000       0.695513        18.9259 
  74   0.0000       0.705771        19.2050 
  75   0.0000       0.721826        19.6419 
  76   0.0000       0.727585        19.7986 
  77   0.0000       0.750581        20.4243 
  78   0.0000       0.796611        21.6769 
  79   0.0000       0.804529        21.8924 
  80   0.0000       0.811413        22.0797 
  81   0.0000       0.825774        22.4705 
  82   0.0000       0.835431        22.7332 
  83   0.0000       0.871348        23.7106 
  84   0.0000       0.889541        24.2056 
  85   0.0000       0.924674        25.1617 
  86   0.0000       0.956766        26.0349 
  87   0.0000       0.964332        26.2408 
  88   0.0000       0.983853        26.7720 
  89   0.0000       0.986208        26.8361 
  90   0.0000       1.002049        27.2671 
  91   0.0000       1.039288        28.2805 
  92   0.0000       1.039524        28.2869 
  93   0.0000       1.067315        29.0431 
  94   0.0000       1.088028        29.6067 
  95   0.0000       1.109809        30.1994 
  96   0.0000       1.128800        30.7162 
  97   0.0000       1.139683        31.0124 
  98   0.0000       1.186048        32.2740 
  99   0.0000       1.202169        32.7127 
 100   0.0000       1.216051        33.0904 
 101   0.0000       1.223256        33.2865 
 102   0.0000       1.225716        33.3534 
 103   0.0000       1.266464        34.4622 
 104   0.0000       1.273587        34.6561 
 105   0.0000       1.297212        35.2989 
 106   0.0000       1.303052        35.4579 
 107   0.0000       1.304396        35.4944 
 108   0.0000       1.330455        36.2035 
 109   0.0000       1.359060        36.9819 
 110   0.0000       1.360334        37.0166 
 111   0.0000       1.379917        37.5494 
 112   0.0000       1.404097        38.2074 
 113   0.0000       1.417350        38.5681 
 114   0.0000       1.455690        39.6113 
 115   0.0000       1.474314        40.1181 
 116   0.0000       1.487006        40.4635 
 117   0.0000       1.500436        40.8289 
 118   0.0000       1.510165        41.0937 
 119   0.0000       1.548690        42.1420 
 120   0.0000       1.567735        42.6602 
 121   0.0000       1.590770        43.2870 
 122   0.0000       1.623485        44.1773 
 123   0.0000       1.648924        44.8695 
 124   0.0000       1.659568        45.1591 
 125   0.0000       1.682899        45.7940 
 126   0.0000       1.717239        46.7285 
 127   0.0000       1.778351        48.3914 
 128   0.0000       1.811006        49.2800 
 129   0.0000       1.834031        49.9065 
 130   0.0000       1.846372        50.2423 
 131   0.0000       1.887141        51.3517 
 132   0.0000       1.897678        51.6385 
 133   0.0000       1.905758        51.8583 
 134   0.0000       1.921652        52.2908 
 135   0.0000       1.924680        52.3732 
 136   0.0000       1.945346        52.9355 
 137   0.0000       1.996455        54.3263 
 138   0.0000       2.017563        54.9007 
 139   0.0000       2.055685        55.9380 
 140   0.0000       2.109604        57.4053 
 141   0.0000       2.169912        59.0463 
 142   0.0000       2.212737        60.2116 
 143   0.0000       2.233177        60.7678 
 144   0.0000       2.268281        61.7231 
 145   0.0000       2.295857        62.4734 
 146   0.0000       2.307100        62.7794 
 147   0.0000       2.356657        64.1279 
 148   0.0000       2.362447        64.2854 
 149   0.0000       2.369866        64.4873 
 150   0.0000       2.441370        66.4330 
 151   0.0000       2.455225        66.8101 
 152   0.0000       2.552704        69.4626 
 153   0.0000       2.590357        70.4872 
 154   0.0000       2.636611        71.7458 
 155   0.0000       2.644827        71.9694 
 156   0.0000       2.658276        72.3354 
 157   0.0000       2.689444        73.1835 
 158   0.0000       2.725399        74.1619 
 159   0.0000       2.730294        74.2951 
 160   0.0000       2.750898        74.8557 
 161   0.0000       2.772967        75.4563 
 162   0.0000       2.788360        75.8751 
 163   0.0000       2.816749        76.6476 
 164   0.0000       2.817485        76.6677 
 165   0.0000       2.887148        78.5633 
 166   0.0000       2.894896        78.7741 
 167   0.0000       2.903013        78.9950 
 168   0.0000       2.909725        79.1777 
 169   0.0000       2.920456        79.4696 
 170   0.0000       2.940560        80.0167 
 171   0.0000       2.955236        80.4161 
 172   0.0000       3.010969        81.9326 
 173   0.0000       3.012727        81.9805 
 174   0.0000       3.033928        82.5574 
 175   0.0000       3.039998        82.7225 
 176   0.0000       3.041422        82.7613 
 177   0.0000       3.053632        83.0935 
 178   0.0000       3.080549        83.8260 
 179   0.0000       3.105808        84.5133 
 180   0.0000       3.119385        84.8828 
 181   0.0000       3.126086        85.0651 
 182   0.0000       3.128483        85.1303 
 183   0.0000       3.150829        85.7384 
 184   0.0000       3.165380        86.1344 
 185   0.0000       3.181262        86.5665 
 186   0.0000       3.205092        87.2150 
 187   0.0000       3.261776        88.7574 
 188   0.0000       3.278240        89.2054 
 189   0.0000       3.289113        89.5013 
 190   0.0000       3.295735        89.6815 
 191   0.0000       3.309402        90.0534 
 192   0.0000       3.312083        90.1264 
 193   0.0000       3.328084        90.5618 
 194   0.0000       3.341334        90.9223 
 195   0.0000       3.371608        91.7461 
 196   0.0000       3.372023        91.7574 
 197   0.0000       3.401352        92.5555 
 198   0.0000       3.414142        92.9035 
 199   0.0000       3.451240        93.9130 
 200   0.0000       3.456278        94.0501 
 201   0.0000       3.460706        94.1706 
 202   0.0000       3.478636        94.6585 
 203   0.0000       3.485246        94.8384 
 204   0.0000       3.522234        95.8449 
 205   0.0000       3.532584        96.1265 
 206   0.0000       3.573018        97.2268 
 207   0.0000       3.603605        98.0591 
 208   0.0000       3.604431        98.0816 
 209   0.0000       3.666647        99.7745 
 210   0.0000       3.695180       100.5510 
 211   0.0000       3.716102       101.1203 
 212   0.0000       3.754668       102.1697 
 213   0.0000       3.759454       102.3000 
 214   0.0000       3.764989       102.4505 
 215   0.0000       3.772113       102.6444 
 216   0.0000       3.784618       102.9847 
 217   0.0000       3.798697       103.3678 
 218   0.0000       3.812109       103.7328 
 219   0.0000       3.813677       103.7754 
 220   0.0000       3.848673       104.7277 
 221   0.0000       3.852406       104.8293 
 222   0.0000       3.870744       105.3283 
 223   0.0000       3.888325       105.8067 
 224   0.0000       3.926538       106.8465 
 225   0.0000       3.957118       107.6787 
 226   0.0000       3.998075       108.7932 
 227   0.0000       4.028993       109.6345 
 228   0.0000       4.038102       109.8823 
 229   0.0000       4.079976       111.0218 
 230   0.0000       4.089615       111.2841 
 231   0.0000       4.122064       112.1671 
 232   0.0000       4.150947       112.9530 
 233   0.0000       4.174760       113.6010 
 234   0.0000       4.198466       114.2461 
 235   0.0000       4.198836       114.2561 
 236   0.0000       4.222394       114.8972 
 237   0.0000       4.244484       115.4983 
 238   0.0000       4.249435       115.6330 
 239   0.0000       4.253429       115.7417 
 240   0.0000       4.277222       116.3891 
 241   0.0000       4.301364       117.0461 
 242   0.0000       4.314590       117.4060 
 243   0.0000       4.322150       117.6117 
 244   0.0000       4.361670       118.6871 
 245   0.0000       4.442622       120.8899 
 246   0.0000       4.514620       122.8490 
 247   0.0000       4.524305       123.1126 
 248   0.0000       4.547515       123.7442 
 249   0.0000       4.607050       125.3642 
 250   0.0000       4.630132       125.9923 
 251   0.0000       4.637747       126.1995 
 252   0.0000       4.643793       126.3640 
 253   0.0000       4.699451       127.8786 
 254   0.0000       4.712096       128.2226 
 255   0.0000       4.725643       128.5913 
 256   0.0000       4.735808       128.8679 
 257   0.0000       4.766744       129.7097 
 258   0.0000       4.775909       129.9591 
 259   0.0000       4.824851       131.2909 
 260   0.0000       4.857432       132.1774 
 261   0.0000       4.940945       134.4500 
 262   0.0000       4.972918       135.3200 
 263   0.0000       4.974449       135.3616 
 264   0.0000       5.013691       136.4295 
 265   0.0000       5.057928       137.6332 
 266   0.0000       5.172087       140.7397 
 267   0.0000       5.181431       140.9939 
 268   0.0000       5.263841       143.2364 
 269   0.0000       5.296089       144.1139 
 270   0.0000       5.315050       144.6299 
 271   0.0000       5.323515       144.8602 
 272   0.0000       5.359387       145.8363 
 273   0.0000       5.393268       146.7583 
 274   0.0000       5.506048       149.8272 
 275   0.0000       5.556097       151.1891 
 276   0.0000       5.586369       152.0128 
 277   0.0000       5.648930       153.7152 
 278   0.0000       5.745331       156.3384 
 279   0.0000       5.790879       157.5778 
 280   0.0000       5.878027       159.9492 
 281   0.0000       5.887372       160.2035 
 282   0.0000       6.077263       165.3707 
 283   0.0000       6.184970       168.3016 
 284   0.0000       6.317955       171.9203 
 285   0.0000       6.411490       174.4655 
 286   0.0000       6.599823       179.5903 
 287   0.0000       6.605499       179.7448 
 288   0.0000       6.754244       183.7923 
 289   0.0000       6.819416       185.5657 
 290   0.0000       6.925830       188.4614 
 291   0.0000       7.073576       192.4818 
 292   0.0000       7.430935       202.2060 
 293   0.0000       7.491906       203.8651 
 294   0.0000      22.507427       612.4582 
 295   0.0000      23.053707       627.3233 
 296   0.0000      23.137569       629.6053 
 297   0.0000      23.183000       630.8415 
 298   0.0000      23.221735       631.8955 
 299   0.0000      23.995232       652.9435 
 300   0.0000      44.046121      1198.5559 

                    ********************************
                    * MULLIKEN POPULATION ANALYSIS *
                    ********************************

-----------------------
MULLIKEN ATOMIC CHARGES
-----------------------
   0 H :    0.156216
   1 C :   -0.177981
   2 C :   -0.173752
   3 H :    0.162679
   4 C :   -0.190243
   5 H :    0.147321
   6 C :    0.218420
   7 O :   -0.356610
   8 C :   -0.178649
   9 H :    0.140355
  10 C :   -0.161025
  11 H :    0.160764
  12 H :    0.252504
Sum of atomic charges:   -0.0000000

--------------------------------
MULLIKEN REDUCED ORBITAL CHARGES
--------------------------------
  0 H s       :     0.809945  s :     0.809945
      pz      :     0.011705  p :     0.032237
      px      :     0.009801
      py      :     0.010731
      dz2     :     0.000310  d :     0.001602
      dxz     :     0.000417
      dyz     :     0.000636
      dx2y2   :     0.000120
      dxy     :     0.000120
  1 C s       :     3.206465  s :     3.206465
      pz      :     0.990946  p :     2.864524
      px      :     0.923205
      py      :     0.950373
      dz2     :     0.027943  d :     0.099630
      dxz     :     0.026102
      dyz     :     0.010680
      dx2y2   :     0.019510
      dxy     :     0.015395
      f0      :     0.001058  f :     0.007363
      f+1     :     0.001220
      f-1     :     0.000811
      f+2     :     0.001117
      f-2     :     0.001028
      f+3     :     0.001430
      f-3     :     0.000698
  2 C s       :     3.221161  s :     3.221161
      pz      :     0.950366  p :     2.843721
      px      :     0.928329
      py      :     0.965026
      dz2     :     0.015957  d :     0.101463
      dxz     :     0.031203
      dyz     :     0.026393
      dx2y2   :     0.014598
      dxy     :     0.013312
      f0      :     0.001406  f :     0.007407
      f+1     :     0.001107
      f-1     :     0.001225
      f+2     :     0.000579
      f-2     :     0.001273
      f+3     :     0.001310
      f-3     :     0.000507
  3 H s       :     0.803991  s :     0.803991
      pz      :     0.010461  p :     0.031754
      px      :     0.009887
      py      :     0.011406
      dz2     :     0.000620  d :     0.001576
      dxz     :     0.000212
      dyz     :     0.000156
      dx2y2   :     0.000358
      dxy     :     0.000230
  4 C s       :     3.219156  s :     3.219156
      pz      :     0.890400  p :     2.884445
      px      :     1.006427
      py      :     0.987618
      dz2     :     0.018274  d :     0.079239
      dxz     :     0.020432
      dyz     :     0.019019
      dx2y2   :     0.010914
      dxy     :     0.010600
      f0      :     0.001593  f :     0.007403
      f+1     :     0.001075
      f-1     :     0.001429
      f+2     :     0.001127
      f-2     :     0.000970
      f+3     :     0.000448
      f-3     :     0.000760
  5 H s       :     0.816584  s :     0.816584
      pz      :     0.008633  p :     0.034457
      px      :     0.013591
      py      :     0.012233
      dz2     :     0.000147  d :     0.001638
      dxz     :     0.000537
      dyz     :     0.000192
      dx2y2   :     0.000510
      dxy     :     0.000253
  6 C s       :     3.113714  s :     3.113714
      pz      :     0.719252  p :     2.489039
      px      :     0.856711
      py      :     0.913076
      dz2     :     0.041179  d :     0.163508
      dxz     :     0.035025
      dyz     :     0.039815
      dx2y2   :     0.026947
      dxy     :     0.020542
      f0      :     0.003633  f :     0.015319
      f+1     :     0.002655
      f-1     :     0.002646
      f+2     :     0.001905
      f-2     :     0.002020
      f+3     :     0.001651
      f-3     :     0.000809
  7 O s       :     3.746030  s :     3.746030
      pz      :     1.469474  p :     4.583428
      px      :     1.422595
      py      :     1.691358
      dz2     :     0.010051  d :     0.025918
      dxz     :     0.005232
      dyz     :     0.005323
      dx2y2   :     0.001439
      dxy     :     0.003872
      f0      :     0.000293  f :     0.001235
      f+1     :     0.000360
      f-1     :     0.000172
      f+2     :     0.000124
      f-2     :     0.000109
      f+3     :     0.000050
      f-3     :     0.000127
  8 C s       :     3.231000  s :     3.231000
      pz      :     0.947874  p :     2.859182
      px      :     0.918815
      py      :     0.992494
      dz2     :     0.015108  d :     0.081002
      dxz     :     0.021395
      dyz     :     0.020395
      dx2y2   :     0.013584
      dxy     :     0.010520
      f0      :     0.001313  f :     0.007464
      f+1     :     0.001174
      f-1     :     0.001175
      f+2     :     0.000662
      f-2     :     0.001293
      f+3     :     0.001309
      f-3     :     0.000538
  9 H s       :     0.825300  s :     0.825300
      pz      :     0.010605  p :     0.032688
      px      :     0.010156
      py      :     0.011927
      dz2     :     0.000648  d :     0.001657
      dxz     :     0.000227
      dyz     :     0.000176
      dx2y2   :     0.000373
      dxy     :     0.000233
 10 C s       :     3.222676  s :     3.222676
      pz      :     0.883769  p :     2.829394
      px      :     0.991875
      py      :     0.953750
      dz2     :     0.031321  d :     0.101578
      dxz     :     0.020759
      dyz     :     0.023178
      dx2y2   :     0.011921
      dxy     :     0.014398
      f0      :     0.001519  f :     0.007377
      f+1     :     0.001100
      f-1     :     0.001366
      f+2     :     0.001202
      f-2     :     0.000979
      f+3     :     0.000431
      f-3     :     0.000779
 11 H s       :     0.806080  s :     0.806080
      pz      :     0.008628  p :     0.031579
      px      :     0.011902
      py      :     0.011050
      dz2     :     0.000153  d :     0.001577
      dxz     :     0.000533
      dyz     :     0.000195
      dx2y2   :     0.000471
      dxy     :     0.000224
 12 H s       :     0.661944  s :     0.661944
      pz      :     0.016547  p :     0.076789
      px      :     0.030408
      py      :     0.029834
      dz2     :     0.000959  d :     0.008762
      dxz     :     0.001474
      dyz     :     0.000676
      dx2y2   :     0.002928
      dxy     :     0.002725


                     *******************************
                     * LOEWDIN POPULATION ANALYSIS *
                     *******************************

----------------------
LOEWDIN ATOMIC CHARGES
----------------------
   0 H :    0.020233
   1 C :   -0.044614
   2 C :   -0.022018
   3 H :    0.025787
   4 C :   -0.030698
   5 H :    0.024490
   6 C :   -0.213053
   7 O :    0.311372
   8 C :   -0.026095
   9 H :    0.024133
  10 C :   -0.021764
  11 H :    0.026247
  12 H :   -0.074021

-------------------------------
LOEWDIN REDUCED ORBITAL CHARGES
-------------------------------
  0 H s       :     0.802322  s :     0.802322
      pz      :     0.067104  p :     0.148968
      px      :     0.041760
      py      :     0.040103
      dz2     :     0.009940  d :     0.028477
      dxz     :     0.008505
      dyz     :     0.007345
      dx2y2   :     0.001346
      dxy     :     0.001342
  1 C s       :     2.724528  s :     2.724528
      pz      :     0.981641  p :     2.890011
      px      :     0.976927
      py      :     0.931443
      dz2     :     0.098598  d :     0.387608
      dxz     :     0.100148
      dyz     :     0.049442
      dx2y2   :     0.071451
      dxy     :     0.067969
      f0      :     0.006309  f :     0.042467
      f+1     :     0.007193
      f-1     :     0.005574
      f+2     :     0.006722
      f-2     :     0.006434
      f+3     :     0.005061
      f-3     :     0.005173
  2 C s       :     2.726267  s :     2.726267
      pz      :     0.990389  p :     2.856688
      px      :     0.967626
      py      :     0.898673
      dz2     :     0.082808  d :     0.396273
      dxz     :     0.117045
      dyz     :     0.085504
      dx2y2   :     0.052685
      dxy     :     0.058231
      f0      :     0.008793  f :     0.042791
      f+1     :     0.007999
      f-1     :     0.006917
      f+2     :     0.004215
      f-2     :     0.005564
      f+3     :     0.005224
      f-3     :     0.004079
  3 H s       :     0.799734  s :     0.799734
      pz      :     0.052343  p :     0.146206
      px      :     0.044002
      py      :     0.049861
      dz2     :     0.007089  d :     0.028273
      dxz     :     0.005891
      dyz     :     0.006519
      dx2y2   :     0.004288
      dxy     :     0.004486
  4 C s       :     2.723625  s :     2.723625
      pz      :     1.003155  p :     2.890426
      px      :     0.959352
      py      :     0.927919
      dz2     :     0.107144  d :     0.374174
      dxz     :     0.097555
      dyz     :     0.085725
      dx2y2   :     0.036504
      dxy     :     0.047246
      f0      :     0.008611  f :     0.042474
      f+1     :     0.007562
      f-1     :     0.008344
      f+2     :     0.006985
      f-2     :     0.005938
      f+3     :     0.001539
      f-3     :     0.003495
  5 H s       :     0.796776  s :     0.796776
      pz      :     0.035362  p :     0.149849
      px      :     0.065189
      py      :     0.049299
      dz2     :     0.003490  d :     0.028885
      dxz     :     0.006800
      dyz     :     0.002520
      dx2y2   :     0.008107
      dxy     :     0.007967
  6 C s       :     2.712525  s :     2.712525
      pz      :     0.846054  p :     2.744006
      px      :     0.967933
      py      :     0.930018
      dz2     :     0.188803  d :     0.662821
      dxz     :     0.162242
      dyz     :     0.139212
      dx2y2   :     0.088071
      dxy     :     0.084493
      f0      :     0.022883  f :     0.093701
      f+1     :     0.017174
      f-1     :     0.017579
      f+2     :     0.012164
      f-2     :     0.011841
      f+3     :     0.006273
      f-3     :     0.005785
  7 O s       :     3.220325  s :     3.220325
      pz      :     1.426768  p :     4.391076
      px      :     1.393040
      py      :     1.571269
      dz2     :     0.025970  d :     0.072235
      dxz     :     0.017141
      dyz     :     0.012576
      dx2y2   :     0.004746
      dxy     :     0.011802
      f0      :     0.001415  f :     0.004991
      f+1     :     0.001095
      f-1     :     0.000925
      f+2     :     0.000294
      f-2     :     0.000483
      f+3     :     0.000244
      f-3     :     0.000535
  8 C s       :     2.723226  s :     2.723226
      pz      :     0.998527  p :     2.889331
      px      :     0.965708
      py      :     0.925096
      dz2     :     0.081517  d :     0.371257
      dxz     :     0.104659
      dyz     :     0.078968
      dx2y2   :     0.050063
      dxy     :     0.056049
      f0      :     0.008370  f :     0.042281
      f+1     :     0.007961
      f-1     :     0.006561
      f+2     :     0.004309
      f-2     :     0.005615
      f+3     :     0.005088
      f-3     :     0.004376
  9 H s       :     0.798339  s :     0.798339
      pz      :     0.052553  p :     0.148763
      px      :     0.044157
      py      :     0.052053
      dz2     :     0.007116  d :     0.028764
      dxz     :     0.006027
      dyz     :     0.006568
      dx2y2   :     0.004556
      dxy     :     0.004497
 10 C s       :     2.726069  s :     2.726069
      pz      :     1.005638  p :     2.856747
      px      :     0.949328
      py      :     0.901781
      dz2     :     0.122036  d :     0.396149
      dxz     :     0.096297
      dyz     :     0.090155
      dx2y2   :     0.036847
      dxy     :     0.050814
      f0      :     0.008667  f :     0.042799
      f+1     :     0.007557
      f-1     :     0.008266
      f+2     :     0.007196
      f-2     :     0.005878
      f+3     :     0.001570
      f-3     :     0.003665
 11 H s       :     0.799461  s :     0.799461
      pz      :     0.035811  p :     0.146025
      px      :     0.063590
      py      :     0.046623
      dz2     :     0.003507  d :     0.028267
      dxz     :     0.006849
      dyz     :     0.002485
      dx2y2   :     0.007632
      dxy     :     0.007793
 12 H s       :     0.660329  s :     0.660329
      pz      :     0.066633  p :     0.320534
      px      :     0.137208
      py      :     0.116692
      dz2     :     0.009042  d :     0.093158
      dxz     :     0.019677
      dyz     :     0.007925
      dx2y2   :     0.030558
      dxy     :     0.025956


                      *****************************
                      * MAYER POPULATION ANALYSIS *
                      *****************************

  NA   - Mulliken gross atomic population
  ZA   - Total nuclear charge
  QA   - Mulliken gross atomic charge
  VA   - Mayer's total valence
  BVA  - Mayer's bonded valence
  FA   - Mayer's free valence

  ATOM       NA         ZA         QA         VA         BVA        FA
  0 H      0.8438     1.0000     0.1562     0.9897     0.9897     0.0000
  1 C      6.1780     6.0000    -0.1780     3.8862     3.8862     0.0000
  2 C      6.1738     6.0000    -0.1738     3.8620     3.8620    -0.0000
  3 H      0.8373     1.0000     0.1627     0.9879     0.9879    -0.0000
  4 C      6.1902     6.0000    -0.1902     3.8158     3.8158    -0.0000
  5 H      0.8527     1.0000     0.1473     0.9944     0.9944    -0.0000
  6 C      5.7816     6.0000     0.2184     3.8993     3.8993     0.0000
  7 O      8.3566     8.0000    -0.3566     2.1320     2.1320     0.0000
  8 C      6.1786     6.0000    -0.1786     3.9132     3.9132     0.0000
  9 H      0.8596     1.0000     0.1404     1.0047     1.0047     0.0000
 10 C      6.1610     6.0000    -0.1610     3.9094     3.9094    -0.0000
 11 H      0.8392     1.0000     0.1608     0.9867     0.9867    -0.0000
 12 H      0.7475     1.0000     0.2525     0.9915     0.9915     0.0000

  Mayer bond orders larger than 0.100000
B(  0-H ,  1-C ) :   0.9651 B(  1-C ,  2-C ) :   1.4048 B(  1-C , 10-C ) :   1.4090 
B(  2-C ,  3-H ) :   0.9549 B(  2-C ,  4-C ) :   1.3731 B(  4-C ,  5-H ) :   0.9714 
B(  4-C ,  6-C ) :   1.3446 B(  6-C ,  7-O ) :   1.0874 B(  6-C ,  8-C ) :   1.3728 
B(  7-O , 12-H ) :   0.9598 B(  8-C ,  9-H ) :   0.9727 B(  8-C , 10-C ) :   1.4292 
B( 10-C , 11-H ) :   0.9652 

-------
TIMINGS
-------

Total SCF time: 0 days 0 hours 0 min 26 sec 

Total time                  ....      26.722 sec
Sum of individual times     ....      24.763 sec  ( 92.7%)

Fock matrix formation       ....      21.553 sec  ( 80.7%)
  Split-RI-J                ....       1.510 sec  (  7.0% of F)
  Chain of spheres X        ....       6.270 sec  ( 29.1% of F)
  XC integration            ....       9.365 sec  ( 43.5% of F)
    Basis function eval.    ....       0.206 sec  (  2.2% of XC)
    Density eval.           ....       0.220 sec  (  2.4% of XC)
    XC-Functional eval.     ....       0.037 sec  (  0.4% of XC)
    XC-Potential eval.      ....       0.315 sec  (  3.4% of XC)
Diagonalization             ....       0.330 sec  (  1.2%)
Density matrix formation    ....       0.126 sec  (  0.5%)
Population analysis         ....       0.056 sec  (  0.2%)
Initial guess               ....       0.461 sec  (  1.7%)
Orbital Transformation      ....       0.000 sec  (  0.0%)
Orbital Orthonormalization  ....       0.000 sec  (  0.0%)
DIIS solution               ....       0.291 sec  (  1.1%)
SOSCF solution              ....       0.200 sec  (  0.7%)
Grid generation             ....       1.746 sec  (  6.5%)

Maximum memory used throughout the entire SCF-calculation: 89.9 MB

-------------------------   --------------------
FINAL SINGLE POINT ENERGY      -307.421427748703
-------------------------   --------------------



           ************************************************************
           *        Program running with 40 parallel MPI-processes    *
           *              working on a common directory               *
           ************************************************************
------------------------------------------------------------------------------
                         ORCA SCF GRADIENT CALCULATION
------------------------------------------------------------------------------

 ... reading COSX grid (gridx3)
Gradient of the Kohn-Sham DFT energy:
Kohn-Sham wavefunction type      ... RKS
Hartree-Fock exchange scaling    ...    0.200
Number of operators              ...    1
Number of atoms                  ...   13
Basis set dimensions             ...  301
Integral neglect threshold       ... 2.5e-11
Integral primitive cutoff        ... 2.5e-12
SHARK Integral package           ... ON

Nuc. rep. gradient       (SHARK) ... done (  0.0 sec)
HCore & Overlap gradient (SHARK) ... done (  0.0 sec)
RI-J gradient            (SHARK) ... done (  0.7 sec)
COSX-gradient                    ... done (  0.8 sec)
Exchange-correlation gradient    ... done

------------------
CARTESIAN GRADIENT
------------------

   1   H   :    0.001338791    0.000258027    0.003122020
   2   C   :   -0.002396104   -0.000363353   -0.005532916
   3   C   :   -0.000938059    0.001182348    0.001485740
   4   H   :   -0.001043801    0.001659675    0.002749426
   5   C   :    0.000452174   -0.002847950   -0.007298992
   6   H   :   -0.001999273    0.001688239    0.001042522
   7   C   :    0.004738805   -0.004850811   -0.004660216
   8   O   :    0.003486508   -0.000289759    0.005291556
   9   C   :   -0.004718506    0.004364619    0.003505955
  10   H   :    0.002779277   -0.002191364   -0.001029700
  11   C   :    0.003166547   -0.001922895    0.000627712
  12   H   :    0.002864147   -0.001293272    0.001615621
  13   H   :   -0.007754279    0.004688298   -0.000960229

Difference to translation invariance:
           :   -0.0000237725    0.0000818029   -0.0000414995

Difference to rotation invariance:
           :   -0.0002974326   -0.0002882144    0.0001788309

Norm of the cartesian gradient     ...    0.0204518629
RMS gradient                       ...    0.0032749190
MAX gradient                       ...    0.0077542787

-------
TIMINGS
-------

Total SCF gradient time            ...        3.676 sec

One electron gradient       ....       0.026 sec  (  0.7%)
RI-J Coulomb gradient       ....       0.731 sec  ( 19.9%)
COSX gradient               ....       0.839 sec  ( 22.8%)
XC gradient                 ....       0.678 sec  ( 18.4%)
CPCM gradient               ....       0.128 sec  (  3.5%)
   A-Matrix (El+Nuc)        ....       0.031 sec  (  0.8%)
   Potential                ....       0.097 sec  (  2.6%)

Maximum memory used throughout the entire SCFGRAD-calculation: 48.3 MB
------------------------------------------------------------------------------
                         ORCA GEOMETRY RELAXATION STEP
------------------------------------------------------------------------------

Reading the OPT-File                    .... done
Getting information on internals        .... done
Copying old internal coords+grads       .... done
Making the new internal coordinates     .... (new redundants).... done
Validating the new internal coordinates .... (new redundants).... done
Calculating the B-matrix                .... done
Calculating the G,G- and P matrices     .... done
Transforming gradient to internals      .... done
Projecting the internal gradient        .... done
Number of atoms                         ....  13
Number of internal coordinates          ....  58
Current Energy                          ....  -307.421427749 Eh
Current gradient norm                   ....     0.020451863 Eh/bohr
Maximum allowed component of the step   ....  0.300
Current trust radius                    ....  0.300
Evaluating the initial hessian          ....  (Almloef) done
Projecting the Hessian                  .... done
Forming the augmented Hessian           .... done
Diagonalizing the augmented Hessian     .... done
Last element of RFO vector              ....  0.999043133
Lowest eigenvalues of augmented Hessian:
 -0.000818595  0.026029080  0.026070620  0.026151108  0.026164122
Length of the computed step             ....  0.043777668
The final length of the internal step   ....  0.043777668
Converting the step to cartesian space:
 Initial RMS(Int)=    0.0057482894
Transforming coordinates:
 Iter   0:  RMS(Cart)=    0.0138552013 RMS(Int)=    2.3334533904
 Iter   1:  RMS(Cart)=    0.0001201080 RMS(Int)=    0.0000613681
 Iter   2:  RMS(Cart)=    0.0000014846 RMS(Int)=    0.0000007619
 Iter   3:  RMS(Cart)=    0.0000000242 RMS(Int)=    0.0000000121
done
Storing new coordinates                 .... done

                                .--------------------.
          ----------------------|Geometry convergence|-------------------------
          Item                value                   Tolerance       Converged
          ---------------------------------------------------------------------
          RMS gradient        0.0024849517            0.0001000000      NO
          MAX gradient        0.0091109434            0.0003000000      NO
          RMS step            0.0057482894            0.0020000000      NO
          MAX step            0.0202705614            0.0040000000      NO
          ........................................................
          Max(Bonds)      0.0097      Max(Angles)    1.16
          Max(Dihed)        0.13      Max(Improp)    0.00
          ---------------------------------------------------------------------

The optimization has not yet converged - more geometry cycles are needed


    ---------------------------------------------------------------------------
                         Redundant Internal Coordinates
                            (Angstroem and degrees)

        Definition                    Value    dE/dq     Step     New-Value
    ----------------------------------------------------------------------------
     1. B(C   1,H   0)                1.0874  0.003409 -0.0050    1.0825   
     2. B(C   2,C   1)                1.3941  0.001600 -0.0014    1.3927   
     3. B(H   3,C   2)                1.0872  0.003297 -0.0048    1.0824   
     4. B(C   4,C   2)                1.3942  0.002563 -0.0022    1.3920   
     5. B(H   5,C   4)                1.0873  0.002259 -0.0033    1.0840   
     6. B(C   6,C   4)                1.3952 -0.001235  0.0011    1.3963   
     7. B(O   7,C   6)                1.3629 -0.002766  0.0024    1.3653   
     8. B(C   8,C   6)                1.3945  0.002098 -0.0018    1.3927   
     9. B(H   9,C   8)                1.0876  0.003232 -0.0047    1.0829   
    10. B(C  10,C   8)                1.3941  0.002299 -0.0020    1.3921   
    11. B(C  10,C   1)                1.3940  0.001189 -0.0011    1.3930   
    12. B(H  11,C  10)                1.0872  0.003427 -0.0050    1.0822   
    13. B(H  12,O   7)                0.9738  0.009111 -0.0097    0.9641   
    14. A(C   2,C   1,C  10)          119.97  0.002466   -0.36    119.61   
    15. A(H   0,C   1,C  10)          120.01 -0.001296    0.19    120.19   
    16. A(H   0,C   1,C   2)          120.03 -0.001170    0.17    120.19   
    17. A(C   1,C   2,C   4)          120.06 -0.001386    0.20    120.25   
    18. A(C   1,C   2,H   3)          119.98 -0.000058    0.02    120.01   
    19. A(H   3,C   2,C   4)          119.96  0.001444   -0.22    119.74   
    20. A(H   5,C   4,C   6)          120.35  0.001529   -0.26    120.09   
    21. A(C   2,C   4,C   6)          119.98  0.000404   -0.05    119.93   
    22. A(C   2,C   4,H   5)          119.68 -0.001933    0.30    119.98   
    23. A(O   7,C   6,C   8)          119.75  0.008706   -1.16    118.59   
    24. A(C   4,C   6,C   8)          119.94  0.000023    0.01    119.95   
    25. A(C   4,C   6,O   7)          120.31 -0.008728    1.16    121.46   
    26. A(C   6,O   7,H  12)          109.97  0.000580   -0.09    109.88   
    27. A(H   9,C   8,C  10)          119.89 -0.002536    0.40    120.29   
    28. A(C   6,C   8,C  10)          120.04  0.001430   -0.20    119.83   
    29. A(C   6,C   8,H   9)          120.07  0.001107   -0.19    119.88   
    30. A(C   8,C  10,H  11)          119.94  0.002366   -0.35    119.59   
[...]
 262   0.0000       4.988145       135.7343 
 263   0.0000       4.993580       135.8822 
 264   0.0000       5.028714       136.8383 
 265   0.0000       5.074408       138.0817 
 266   0.0000       5.182489       141.0227 
 267   0.0000       5.189534       141.2144 
 268   0.0000       5.274600       143.5292 
 269   0.0000       5.309610       144.4818 
 270   0.0000       5.324078       144.8755 
 271   0.0000       5.330433       145.0485 
 272   0.0000       5.371774       146.1734 
 273   0.0000       5.402846       147.0189 
 274   0.0000       5.509812       149.9296 
 275   0.0000       5.572878       151.6457 
 276   0.0000       5.606042       152.5482 
 277   0.0000       5.650619       153.7612 
 278   0.0000       5.750489       156.4788 
 279   0.0000       5.784057       157.3922 
 280   0.0000       5.884397       160.1226 
 281   0.0000       5.890321       160.2838 
 282   0.0000       6.097598       165.9241 
 283   0.0000       6.194496       168.5608 
 284   0.0000       6.322068       172.0322 
 285   0.0000       6.431043       174.9976 
 286   0.0000       6.608609       179.8294 
 287   0.0000       6.643983       180.7920 
 288   0.0000       6.751320       183.7127 
 289   0.0000       6.815450       185.4578 
 290   0.0000       6.921097       188.3326 
 291   0.0000       7.066564       192.2910 
 292   0.0000       7.448286       202.6782 
 293   0.0000       7.509490       204.3436 
 294   0.0000      22.517958       612.7448 
 295   0.0000      23.063995       627.6032 
 296   0.0000      23.155968       630.1059 
 297   0.0000      23.190919       631.0570 
 298   0.0000      23.245523       632.5428 
 299   0.0000      24.021453       653.6570 
 300   0.0000      44.055147      1198.8015 

                    ********************************
                    * MULLIKEN POPULATION ANALYSIS *
                    ********************************

-----------------------
MULLIKEN ATOMIC CHARGES
-----------------------
   0 H :    0.159434
   1 C :   -0.188861
   2 C :   -0.163483
   3 H :    0.163160
   4 C :   -0.201113
   5 H :    0.149941
   6 C :    0.224576
   7 O :   -0.352775
   8 C :   -0.184735
   9 H :    0.141929
  10 C :   -0.153460
  11 H :    0.160110
  12 H :    0.245278
Sum of atomic charges:   -0.0000000

--------------------------------
MULLIKEN REDUCED ORBITAL CHARGES
--------------------------------
  0 H s       :     0.806522  s :     0.806522
      pz      :     0.011715  p :     0.032454
      px      :     0.009897
      py      :     0.010842
      dz2     :     0.000303  d :     0.001590
      dxz     :     0.000403
      dyz     :     0.000637
      dx2y2   :     0.000123
      dxy     :     0.000123
  1 C s       :     3.213700  s :     3.213700
      pz      :     0.994363  p :     2.868318
      px      :     0.923660
      py      :     0.950295
      dz2     :     0.027931  d :     0.099499
      dxz     :     0.026446
      dyz     :     0.010571
      dx2y2   :     0.019269
      dxy     :     0.015281
      f0      :     0.001078  f :     0.007344
      f+1     :     0.001214
      f-1     :     0.000809
      f+2     :     0.001115
      f-2     :     0.001032
      f+3     :     0.001417
      f-3     :     0.000679
  2 C s       :     3.212952  s :     3.212952
      pz      :     0.949194  p :     2.841503
      px      :     0.928143
      py      :     0.964166
      dz2     :     0.015977  d :     0.101577
      dxz     :     0.031047
      dyz     :     0.026434
      dx2y2   :     0.014726
      dxy     :     0.013393
      f0      :     0.001418  f :     0.007451
      f+1     :     0.001094
      f-1     :     0.001217
      f+2     :     0.000591
      f-2     :     0.001293
      f+3     :     0.001328
      f-3     :     0.000510
  3 H s       :     0.803383  s :     0.803383
      pz      :     0.010435  p :     0.031873
      px      :     0.009966
      py      :     0.011471
      dz2     :     0.000632  d :     0.001584
      dxz     :     0.000208
      dyz     :     0.000151
      dx2y2   :     0.000364
      dxy     :     0.000229
  4 C s       :     3.221440  s :     3.221440
      pz      :     0.890054  p :     2.892340
      px      :     1.011902
      py      :     0.990383
      dz2     :     0.018562  d :     0.079996
      dxz     :     0.020441
      dyz     :     0.019053
      dx2y2   :     0.011006
      dxy     :     0.010934
      f0      :     0.001581  f :     0.007338
      f+1     :     0.001049
      f-1     :     0.001392
      f+2     :     0.001133
      f-2     :     0.000985
      f+3     :     0.000445
      f-3     :     0.000752
  5 H s       :     0.813986  s :     0.813986
      pz      :     0.008610  p :     0.034440
      px      :     0.013550
      py      :     0.012281
      dz2     :     0.000153  d :     0.001633
      dxz     :     0.000532
      dyz     :     0.000190
      dx2y2   :     0.000506
      dxy     :     0.000252
  6 C s       :     3.112485  s :     3.112485
      pz      :     0.711663  p :     2.484775
      px      :     0.859049
      py      :     0.914063
      dz2     :     0.040807  d :     0.162896
      dxz     :     0.035321
      dyz     :     0.039865
      dx2y2   :     0.026747
      dxy     :     0.020157
      f0      :     0.003710  f :     0.015268
      f+1     :     0.002622
      f-1     :     0.002734
      f+2     :     0.001833
      f-2     :     0.001936
      f+3     :     0.001643
      f-3     :     0.000790
  7 O s       :     3.744878  s :     3.744878
      pz      :     1.455815  p :     4.580910
      px      :     1.433912
      py      :     1.691184
      dz2     :     0.010076  d :     0.025778
      dxz     :     0.004990
      dyz     :     0.005395
      dx2y2   :     0.001474
      dxy     :     0.003843
      f0      :     0.000307  f :     0.001210
      f+1     :     0.000345
      f-1     :     0.000178
      f+2     :     0.000114
      f-2     :     0.000103
      f+3     :     0.000046
      f-3     :     0.000117
  8 C s       :     3.232226  s :     3.232226
      pz      :     0.951695  p :     2.862748
      px      :     0.918817
      py      :     0.992236
      dz2     :     0.015591  d :     0.082254
      dxz     :     0.021647
      dyz     :     0.020761
      dx2y2   :     0.013703
      dxy     :     0.010553
      f0      :     0.001328  f :     0.007507
      f+1     :     0.001172
      f-1     :     0.001206
      f+2     :     0.000673
      f-2     :     0.001291
      f+3     :     0.001307
      f-3     :     0.000530
  9 H s       :     0.823558  s :     0.823558
      pz      :     0.010690  p :     0.032861
      px      :     0.010216
      py      :     0.011956
      dz2     :     0.000654  d :     0.001652
      dxz     :     0.000236
      dyz     :     0.000166
      dx2y2   :     0.000358
      dxy     :     0.000238
 10 C s       :     3.215528  s :     3.215528
      pz      :     0.884785  p :     2.828954
      px      :     0.991102
      py      :     0.953067
      dz2     :     0.031294  d :     0.101559
      dxz     :     0.020728
      dyz     :     0.023174
      dx2y2   :     0.011838
      dxy     :     0.014525
      f0      :     0.001551  f :     0.007419
      f+1     :     0.001095
      f-1     :     0.001379
      f+2     :     0.001210
      f-2     :     0.000990
      f+3     :     0.000421
      f-3     :     0.000773
 11 H s       :     0.806597  s :     0.806597
      pz      :     0.008701  p :     0.031704
      px      :     0.011863
      py      :     0.011140
      dz2     :     0.000141  d :     0.001589
      dxz     :     0.000554
      dyz     :     0.000202
      dx2y2   :     0.000479
      dxy     :     0.000212
 12 H s       :     0.667475  s :     0.667475
      pz      :     0.016856  p :     0.078383
      px      :     0.031164
      py      :     0.030362
      dz2     :     0.000982  d :     0.008865
      dxz     :     0.001478
      dyz     :     0.000698
      dx2y2   :     0.002979
      dxy     :     0.002727


                     *******************************
                     * LOEWDIN POPULATION ANALYSIS *
                     *******************************

----------------------
LOEWDIN ATOMIC CHARGES
----------------------
   0 H :    0.018100
   1 C :   -0.040970
   2 C :   -0.020684
   3 H :    0.023756
   4 C :   -0.029434
   5 H :    0.022968
   6 C :   -0.206060
   7 O :    0.319546
   8 C :   -0.023979
   9 H :    0.022102
  10 C :   -0.020793
  11 H :    0.023723
  12 H :   -0.088275

-------------------------------
LOEWDIN REDUCED ORBITAL CHARGES
-------------------------------
  0 H s       :     0.802169  s :     0.802169
      pz      :     0.067438  p :     0.150721
      px      :     0.042513
      py      :     0.040769
      dz2     :     0.010078  d :     0.029011
      dxz     :     0.008649
      dyz     :     0.007474
      dx2y2   :     0.001405
      dxy     :     0.001404
  1 C s       :     2.722438  s :     2.722438
      pz      :     0.982398  p :     2.889018
      px      :     0.976109
      py      :     0.930511
      dz2     :     0.097969  d :     0.386818
      dxz     :     0.100632
      dyz     :     0.049668
      dx2y2   :     0.070969
      dxy     :     0.067579
      f0      :     0.006459  f :     0.042695
      f+1     :     0.007204
      f-1     :     0.005617
      f+2     :     0.006757
      f-2     :     0.006474
      f+3     :     0.005066
      f-3     :     0.005118
  2 C s       :     2.723644  s :     2.723644
      pz      :     0.989634  p :     2.855015
      px      :     0.967519
      py      :     0.897862
      dz2     :     0.082849  d :     0.398846
      dxz     :     0.117704
      dyz     :     0.085944
      dx2y2   :     0.053380
      dxy     :     0.058969
      f0      :     0.008884  f :     0.043179
      f+1     :     0.008029
      f-1     :     0.006888
      f+2     :     0.004314
      f-2     :     0.005710
      f+3     :     0.005264
      f-3     :     0.004090
  3 H s       :     0.799628  s :     0.799628
      pz      :     0.052825  p :     0.147844
      px      :     0.044595
      py      :     0.050424
      dz2     :     0.007246  d :     0.028771
      dxz     :     0.005960
      dyz     :     0.006588
      dx2y2   :     0.004391
      dxy     :     0.004586
  4 C s       :     2.721993  s :     2.721993
      pz      :     1.002034  p :     2.890755
      px      :     0.960469
      py      :     0.928252
      dz2     :     0.106537  d :     0.374085
      dxz     :     0.097706
      dyz     :     0.086198
      dx2y2   :     0.036499
      dxy     :     0.047145
      f0      :     0.008653  f :     0.042600
      f+1     :     0.007538
      f-1     :     0.008289
      f+2     :     0.007087
      f-2     :     0.006058
      f+3     :     0.001517
      f-3     :     0.003458
  5 H s       :     0.796872  s :     0.796872
      pz      :     0.035750  p :     0.150947
      px      :     0.065487
      py      :     0.049710
      dz2     :     0.003522  d :     0.029214
      dxz     :     0.006912
      dyz     :     0.002561
      dx2y2   :     0.008199
      dxy     :     0.008020
  6 C s       :     2.712723  s :     2.712723
      pz      :     0.842501  p :     2.740282
      px      :     0.967870
      py      :     0.929911
      dz2     :     0.190450  d :     0.660084
      dxz     :     0.159775
      dyz     :     0.139372
      dx2y2   :     0.086967
      dxy     :     0.083520
      f0      :     0.023169  f :     0.092970
      f+1     :     0.016860
      f-1     :     0.018092
      f+2     :     0.011569
      f-2     :     0.011243
      f+3     :     0.006320
      f-3     :     0.005718
  7 O s       :     3.217253  s :     3.217253
      pz      :     1.412302  p :     4.386201
      px      :     1.402670
      py      :     1.571229
      dz2     :     0.025955  d :     0.071986
      dxz     :     0.017060
      dyz     :     0.012733
      dx2y2   :     0.004617
      dxy     :     0.011621
      f0      :     0.001435  f :     0.005014
      f+1     :     0.001052
      f-1     :     0.000968
      f+2     :     0.000277
      f-2     :     0.000478
      f+3     :     0.000257
      f-3     :     0.000548
  8 C s       :     2.721232  s :     2.721232
      pz      :     0.999339  p :     2.887370
      px      :     0.964777
      py      :     0.923254
      dz2     :     0.082514  d :     0.372742
      dxz     :     0.104594
      dyz     :     0.079160
      dx2y2   :     0.050542
      dxy     :     0.055932
      f0      :     0.008490  f :     0.042634
      f+1     :     0.007966
      f-1     :     0.006707
      f+2     :     0.004319
      f-2     :     0.005643
      f+3     :     0.005130
      f-3     :     0.004381
  9 H s       :     0.798613  s :     0.798613
      pz      :     0.053574  p :     0.149986
      px      :     0.044110
      py      :     0.052302
      dz2     :     0.007427  d :     0.029300
      dxz     :     0.006186
      dyz     :     0.006778
      dx2y2   :     0.004473
      dxy     :     0.004436
 10 C s       :     2.723556  s :     2.723556
      pz      :     1.006439  p :     2.855319
      px      :     0.948697
      py      :     0.900182
      dz2     :     0.123336  d :     0.398765
      dxz     :     0.096444
      dyz     :     0.090532
      dx2y2   :     0.036862
      dxy     :     0.051591
      f0      :     0.008877  f :     0.043154
      f+1     :     0.007574
      f-1     :     0.008356
      f+2     :     0.007239
      f-2     :     0.005905
      f+3     :     0.001541
      f-3     :     0.003662
 11 H s       :     0.799803  s :     0.799803
      pz      :     0.036377  p :     0.147716
      px      :     0.064073
      py      :     0.047265
      dz2     :     0.003520  d :     0.028759
      dxz     :     0.006988
      dyz     :     0.002530
      dx2y2   :     0.007786
      dxy     :     0.007934
 12 H s       :     0.663682  s :     0.663682
      pz      :     0.068680  p :     0.328724
      px      :     0.140503
      py      :     0.119541
      dz2     :     0.009507  d :     0.095869
      dxz     :     0.020196
      dyz     :     0.008296
      dx2y2   :     0.031557
      dxy     :     0.026313


                      *****************************
                      * MAYER POPULATION ANALYSIS *
                      *****************************

  NA   - Mulliken gross atomic population
  ZA   - Total nuclear charge
  QA   - Mulliken gross atomic charge
  VA   - Mayer's total valence
  BVA  - Mayer's bonded valence
  FA   - Mayer's free valence

  ATOM       NA         ZA         QA         VA         BVA        FA
  0 H      0.8406     1.0000     0.1594     0.9899     0.9899     0.0000
  1 C      6.1889     6.0000    -0.1889     3.8981     3.8981    -0.0000
  2 C      6.1635     6.0000    -0.1635     3.8576     3.8576    -0.0000
  3 H      0.8368     1.0000     0.1632     0.9872     0.9872    -0.0000
  4 C      6.2011     6.0000    -0.2011     3.8320     3.8320    -0.0000
  5 H      0.8501     1.0000     0.1499     0.9946     0.9946     0.0000
  6 C      5.7754     6.0000     0.2246     3.8863     3.8863    -0.0000
  7 O      8.3528     8.0000    -0.3528     2.1353     2.1353    -0.0000
  8 C      6.1847     6.0000    -0.1847     3.9109     3.9109    -0.0000
  9 H      0.8581     1.0000     0.1419     1.0069     1.0069    -0.0000
 10 C      6.1535     6.0000    -0.1535     3.9048     3.9048     0.0000
 11 H      0.8399     1.0000     0.1601     0.9864     0.9864     0.0000
 12 H      0.7547     1.0000     0.2453     0.9972     0.9972     0.0000

  Mayer bond orders larger than 0.100000
B(  0-H ,  1-C ) :   0.9657 B(  1-C ,  2-C ) :   1.4096 B(  1-C , 10-C ) :   1.4060 
B(  2-C ,  3-H ) :   0.9543 B(  2-C ,  4-C ) :   1.3744 B(  4-C ,  5-H ) :   0.9703 
B(  4-C ,  6-C ) :   1.3513 B(  6-C ,  7-O ) :   1.0848 B(  6-C ,  8-C ) :   1.3639 
B(  7-O , 12-H ) :   0.9668 B(  8-C ,  9-H ) :   0.9723 B(  8-C , 10-C ) :   1.4366 
B( 10-C , 11-H ) :   0.9650 

-------
TIMINGS
-------

Total SCF time: 0 days 0 hours 0 min 11 sec 

Total time                  ....      11.381 sec
Sum of individual times     ....       9.217 sec  ( 81.0%)

Fock matrix formation       ....       7.491 sec  ( 65.8%)
  Split-RI-J                ....       0.505 sec  (  6.7% of F)
  Chain of spheres X        ....       3.014 sec  ( 40.2% of F)
  XC integration            ....       2.636 sec  ( 35.2% of F)
    Basis function eval.    ....       0.075 sec  (  2.8% of XC)
    Density eval.           ....       0.070 sec  (  2.6% of XC)
    XC-Functional eval.     ....       0.013 sec  (  0.5% of XC)
    XC-Potential eval.      ....       0.078 sec  (  3.0% of XC)
Diagonalization             ....       0.029 sec  (  0.3%)
Density matrix formation    ....       0.024 sec  (  0.2%)
Population analysis         ....       0.119 sec  (  1.0%)
Initial guess               ....       0.035 sec  (  0.3%)
Orbital Transformation      ....       0.000 sec  (  0.0%)
Orbital Orthonormalization  ....       0.023 sec  (  0.2%)
DIIS solution               ....       0.013 sec  (  0.1%)
SOSCF solution              ....       0.111 sec  (  1.0%)
Grid generation             ....       1.395 sec  ( 12.3%)

Maximum memory used throughout the entire SCF-calculation: 90.5 MB

-------------------------   --------------------
FINAL SINGLE POINT ENERGY      -307.422052398683
-------------------------   --------------------

                                *** OPTIMIZATION RUN DONE ***

                            ***************************************
                            *     ORCA property calculations      *
                            ***************************************

                                    ---------------------
                                    Active property flags
                                    ---------------------
   (+) Dipole Moment


------------------------------------------------------------------------------
                       ORCA ELECTRIC PROPERTIES CALCULATION
------------------------------------------------------------------------------

Dipole Moment Calculation                       ... on
Quadrupole Moment Calculation                   ... off
Polarizability Calculation                      ... off
GBWName                                         ... Opt.gbw
Electron density                                ... Opt.scfp
The origin for moment calculation is the CENTER OF MASS  = (-0.712658,  0.268317 -1.266000)

-------------
DIPOLE MOMENT
-------------
                                X             Y             Z
Electronic contribution:     -0.73709      -0.20192      -1.90648
Nuclear contribution   :      0.17852       0.63436       2.05301
                        -----------------------------------------
Total Dipole Moment    :     -0.55857       0.43244       0.14653
                        -----------------------------------------
Magnitude (a.u.)       :      0.72144
Magnitude (Debye)      :      1.83376



--------------------
Rotational spectrum 
--------------------
 
Rotational constants in cm-1:     0.189316     0.087493     0.059838 
Rotational constants in MHz :  5675.545551  2622.973812  1793.912590 

 Dipole components along the rotational axes: 
x,y,z [a.u.] :    -0.047632    -0.719820     0.008149 
x,y,z [Debye]:    -0.121071    -1.829637     0.020714 

 

Timings for individual modules:

Sum of individual times         ...      129.532 sec (=   2.159 min)
GTO integral calculation        ...        7.401 sec (=   0.123 min)   5.7 %
SCF iterations                  ...      102.129 sec (=   1.702 min)  78.8 %
SCF Gradient evaluation         ...       18.956 sec (=   0.316 min)  14.6 %
Geometry relaxation             ...        1.047 sec (=   0.017 min)   0.8 %
                             ****ORCA TERMINATED NORMALLY****
TOTAL RUN TIME: 0 days 0 hours 2 minutes 14 seconds 479 msec
