 Entering Gaussian System, Link 0=g16
 Initial command:
 /opt/software/gaussian/g16/l1.exe "/users/rkb19187/GAUSSTMP/Gau-203684.inp" -scrdir="/users/rkb19187/GAUSSTMP/"
 Entering Link 1 = /opt/software/gaussian/g16/l1.exe PID=    203685.
  
 Copyright (c) 1988-2019, Gaussian, Inc.  All Rights Reserved.
  
 This is part of the Gaussian(R) 16 program.  It is based on
 the Gaussian(R) 09 system (copyright 2009, Gaussian, Inc.),
 the Gaussian(R) 03 system (copyright 2003, Gaussian, Inc.),
 the Gaussian(R) 98 system (copyright 1998, Gaussian, Inc.),
 the Gaussian(R) 94 system (copyright 1995, Gaussian, Inc.),
 the Gaussian 92(TM) system (copyright 1992, Gaussian, Inc.),
 the Gaussian 90(TM) system (copyright 1990, Gaussian, Inc.),
 the Gaussian 88(TM) system (copyright 1988, Gaussian, Inc.),
 the Gaussian 86(TM) system (copyright 1986, Carnegie Mellon
 University), and the Gaussian 82(TM) system (copyright 1983,
 Carnegie Mellon University). Gaussian is a federally registered
 trademark of Gaussian, Inc.
  
 This software contains proprietary and confidential information,
 including trade secrets, belonging to Gaussian, Inc.
  
 This software is provided under written license and may be
 used, copied, transmitted, or stored only in accord with that
 written license.
  
 The following legend is applicable only to US Government
 contracts under FAR:
  
                    RESTRICTED RIGHTS LEGEND
  
 Use, reproduction and disclosure by the US Government is
 subject to restrictions as set forth in subparagraphs (a)
 and (c) of the Commercial Computer Software - Restricted
 Rights clause in FAR 52.227-19.
  
 Gaussian, Inc.
 340 Quinnipiac St., Bldg. 40, Wallingford CT 06492
  
  
 ---------------------------------------------------------------
 Warning -- This program may not be used in any manner that
 competes with the business of Gaussian, Inc. or will provide
 assistance to any competitor of Gaussian, Inc.  The licensee
 of this program is prohibited from giving any competitor of
 Gaussian, Inc. access to this program.  By using this program,
 the user acknowledges that Gaussian, Inc. is engaged in the
 business of creating and licensing software in the field of
 computational chemistry and represents and warrants to the
 licensee that it is not a competitor of Gaussian, Inc. and that
 it will not use this program in any manner prohibited above.
 ---------------------------------------------------------------
  

 Cite this work as:
 Gaussian 16, Revision C.01,
 M. J. Frisch, G. W. Trucks, H. B. Schlegel, G. E. Scuseria, 
 M. A. Robb, J. R. Cheeseman, G. Scalmani, V. Barone, 
 G. A. Petersson, H. Nakatsuji, X. Li, M. Caricato, A. V. Marenich, 
 J. Bloino, B. G. Janesko, R. Gomperts, B. Mennucci, H. P. Hratchian, 
 J. V. Ortiz, A. F. Izmaylov, J. L. Sonnenberg, D. Williams-Young, 
 F. Ding, F. Lipparini, F. Egidi, J. Goings, B. Peng, A. Petrone, 
 T. Henderson, D. Ranasinghe, V. G. Zakrzewski, J. Gao, N. Rega, 
 G. Zheng, W. Liang, M. Hada, M. Ehara, K. Toyota, R. Fukuda, 
 J. Hasegawa, M. Ishida, T. Nakajima, Y. Honda, O. Kitao, H. Nakai, 
 T. Vreven, K. Throssell, J. A. Montgomery, Jr., J. E. Peralta, 
 F. Ogliaro, M. J. Bearpark, J. J. Heyd, E. N. Brothers, K. N. Kudin, 
 V. N. Staroverov, T. A. Keith, R. Kobayashi, J. Normand, 
 K. Raghavachari, A. P. Rendell, J. C. Burant, S. S. Iyengar, 
 J. Tomasi, M. Cossi, J. M. Millam, M. Klene, C. Adamo, R. Cammi, 
 J. W. Ochterski, R. L. Martin, K. Morokuma, O. Farkas, 
 J. B. Foresman, and D. J. Fox, Gaussian, Inc., Wallingford CT, 2019.
 
 ******************************************
 Gaussian 16:  ES64L-G16RevC.01  3-Jul-2019
                 3-Dec-2019 
 ******************************************
 %chk=ox2.chk
 ----------------------------------------------------------------------
 #p opt freq M06/6-311+g(d,p) scrf=(iefpcm,solvent=water) geom=connecti
 vity
 ----------------------------------------------------------------------
 1/18=20,19=15,26=3,38=1,57=2/1,3;
 2/9=110,12=2,17=6,18=5,40=1/2;
 3/5=4,6=6,7=111,11=2,25=1,30=1,70=2201,71=1,72=1,74=-54/1,2,3;
 4//1;
 5/5=2,38=5,53=1/2;
 6/7=2,8=2,9=2,10=2,28=1/1;
 7//1,2,3,16;
 1/18=20,19=15,26=3/3(2);
 2/9=110/2;
 99//99;
 2/9=110/2;
 3/5=4,6=6,7=111,11=2,25=1,30=1,70=2205,71=1,72=1,74=-54/1,2,3;
 4/5=5,16=3,69=1/1;
 5/5=2,38=5,53=1/2;
 7//1,2,3,16;
 1/18=20,19=15,26=3/3(-5);
 2/9=110/2;
 6/7=2,8=2,9=2,10=2,19=2,28=1/1;
 99/9=1/99;
 Leave Link    1 at Tue Dec  3 10:43:33 2019, MaxMem=           0 cpu:               0.0 elap:               0.4
 (Enter /opt/software/gaussian/g16/l101.exe)
 -------------------
 Title Card Required
 -------------------
 Symbolic Z-matrix:
 Charge =  0 Multiplicity = 1
 C(PDBName=C,ResName=UNL,ResNum=1) -0.79      3.39      0.133 
 C(PDBName=C,ResName=UNL,ResNum=1) -1.201     2.133    -0.486 
 C(PDBName=C,ResName=UNL,ResNum=1) -0.448     1.032    -0.32 
 C(PDBName=C,ResName=UNL,ResNum=1)  0.799     1.095     0.526 
 C(PDBName=C,ResName=UNL,ResNum=1)  1.409     2.465     0.482 
 C(PDBName=C,ResName=UNL,ResNum=1)  0.475     3.564     0.571 
 O(PDBName=O,ResName=UNL,ResNum=1)  0.946     4.724     1.125 
 H(PDBName=H,ResName=UNL,ResNum=1)  0.224     5.373     1.144 
 O(PDBName=O,ResName=UNL,ResNum=1) -0.734    -0.162    -0.946 
 N(PDBName=N,ResName=UNL,ResNum=1)  1.853     0.175     0.04 
 H(PDBName=H,ResName=UNL,ResNum=1)  0.545     0.814     1.557 
 C(PDBName=C,ResName=UNL,ResNum=1)  2.889     0.963    -0.019 
 C(PDBName=C,ResName=UNL,ResNum=1)  2.722     2.407     0.242 
 H(PDBName=H,ResName=UNL,ResNum=1)  3.88      0.599    -0.332 
 C(PDBName=C,ResName=UNL,ResNum=1)  3.755     3.415     0.042 
 H(PDBName=H,ResName=UNL,ResNum=1) -1.529     4.182     0.176 
 C(PDBName=C,ResName=UNL,ResNum=1)  5.012     3.254     0.642 
 C(PDBName=C,ResName=UNL,ResNum=1)  6.025     4.194     0.436 
 H(PDBName=H,ResName=UNL,ResNum=1)  5.212     2.402     1.288 
 C(PDBName=C,ResName=UNL,ResNum=1)  3.539     4.529    -0.778 
 C(PDBName=C,ResName=UNL,ResNum=1)  4.552     5.469    -0.985 
 H(PDBName=H,ResName=UNL,ResNum=1)  2.578     4.675    -1.267 
 C(PDBName=C,ResName=UNL,ResNum=1)  5.794     5.301    -0.378 
 H(PDBName=H,ResName=UNL,ResNum=1)  6.992     4.063     0.913 
 H(PDBName=H,ResName=UNL,ResNum=1)  6.582     6.033    -0.537 
 H(PDBName=H,ResName=UNL,ResNum=1)  4.369     6.331    -1.621 
 H(PDBName=H,ResName=UNL,ResNum=1)  0.083    -0.698    -0.84 
 H(PDBName=H,ResName=UNL,ResNum=1) -2.096     2.115    -1.098 
 
 ITRead=  0  0  0  0  0  0  0  0  0  0  0  0  0  0  0  0  0  0  0  0
 ITRead=  0  0  0  0  0  0  0  0
 MicOpt= -1 -1 -1 -1 -1 -1 -1 -1 -1 -1 -1 -1 -1 -1 -1 -1 -1 -1 -1 -1
 MicOpt= -1 -1 -1 -1 -1 -1 -1 -1
 NAtoms=     28 NQM=       28 NQMF=       0 NMMI=      0 NMMIF=      0
                NMic=       0 NMicF=      0.
                    Isotopes and Nuclear Properties:
 (Nuclear quadrupole moments (NQMom) in fm**2, nuclear magnetic moments (NMagM)
  in nuclear magnetons)

  Atom         1           2           3           4           5           6           7           8           9          10
 IAtWgt=          12          12          12          12          12          12          16           1          16          14
 AtmWgt=  12.0000000  12.0000000  12.0000000  12.0000000  12.0000000  12.0000000  15.9949146   1.0078250  15.9949146  14.0030740
 NucSpn=           0           0           0           0           0           0           0           1           0           2
 AtZEff=  -0.0000000  -0.0000000  -0.0000000  -0.0000000  -0.0000000  -0.0000000  -0.0000000  -0.0000000  -0.0000000  -0.0000000
 NQMom=    0.0000000   0.0000000   0.0000000   0.0000000   0.0000000   0.0000000   0.0000000   0.0000000   0.0000000   2.0440000
 NMagM=    0.0000000   0.0000000   0.0000000   0.0000000   0.0000000   0.0000000   0.0000000   2.7928460   0.0000000   0.4037610
 AtZNuc=   6.0000000   6.0000000   6.0000000   6.0000000   6.0000000   6.0000000   8.0000000   1.0000000   8.0000000   7.0000000

  Atom        11          12          13          14          15          16          17          18          19          20
 IAtWgt=           1          12          12           1          12           1          12          12           1          12
 AtmWgt=   1.0078250  12.0000000  12.0000000   1.0078250  12.0000000   1.0078250  12.0000000  12.0000000   1.0078250  12.0000000
 NucSpn=           1           0           0           1           0           1           0           0           1           0
 AtZEff=  -0.0000000  -0.0000000  -0.0000000  -0.0000000  -0.0000000  -0.0000000  -0.0000000  -0.0000000  -0.0000000  -0.0000000
 NQMom=    0.0000000   0.0000000   0.0000000   0.0000000   0.0000000   0.0000000   0.0000000   0.0000000   0.0000000   0.0000000
 NMagM=    2.7928460   0.0000000   0.0000000   2.7928460   0.0000000   2.7928460   0.0000000   0.0000000   2.7928460   0.0000000
 AtZNuc=   1.0000000   6.0000000   6.0000000   1.0000000   6.0000000   1.0000000   6.0000000   6.0000000   1.0000000   6.0000000

  Atom        21          22          23          24          25          26          27          28
 IAtWgt=          12           1          12           1           1           1           1           1
 AtmWgt=  12.0000000   1.0078250  12.0000000   1.0078250   1.0078250   1.0078250   1.0078250   1.0078250
 NucSpn=           0           1           0           1           1           1           1           1
 AtZEff=  -0.0000000  -0.0000000  -0.0000000  -0.0000000  -0.0000000  -0.0000000  -0.0000000  -0.0000000
 NQMom=    0.0000000   0.0000000   0.0000000   0.0000000   0.0000000   0.0000000   0.0000000   0.0000000
 NMagM=    0.0000000   2.7928460   0.0000000   2.7928460   2.7928460   2.7928460   2.7928460   2.7928460
 AtZNuc=   6.0000000   1.0000000   6.0000000   1.0000000   1.0000000   1.0000000   1.0000000   1.0000000
 Center=      2.26560714      2.99417857     -0.01035714
 Residue   1 PDB Number     1_0 UNL charge    0.00000000 layers R        AvRTP=      0.00000000    219.91595576     90.07694889
 Leave Link  101 at Tue Dec  3 10:43:33 2019, MaxMem=   104857600 cpu:               0.1 elap:               0.2
 (Enter /opt/software/gaussian/g16/l103.exe)

 GradGradGradGradGradGradGradGradGradGradGradGradGradGradGradGradGradGrad
 Berny optimization.
 Initialization pass.
                           ----------------------------
                           !    Initial Parameters    !
                           ! (Angstroms and Degrees)  !
 --------------------------                            --------------------------
 ! Name  Definition              Value          Derivative Info.                !
 --------------------------------------------------------------------------------
 ! R1    R(1,2)                  1.4602         estimate D2E/DX2                !
 ! R2    R(1,6)                  1.3499         estimate D2E/DX2                !
 ! R3    R(1,16)                 1.0841         estimate D2E/DX2                !
 ! R4    R(2,3)                  1.3442         estimate D2E/DX2                !
 ! R5    R(2,28)                 1.0844         estimate D2E/DX2                !
 ! R6    R(3,4)                  1.5082         estimate D2E/DX2                !
 ! R7    R(3,9)                  1.3782         estimate D2E/DX2                !
 ! R8    R(4,5)                  1.5003         estimate D2E/DX2                !
 ! R9    R(4,10)                 1.4811         estimate D2E/DX2                !
 ! R10   R(4,11)                 1.0984         estimate D2E/DX2                !
 ! R11   R(5,6)                  1.445          estimate D2E/DX2                !
 ! R12   R(5,13)                 1.336          estimate D2E/DX2                !
 ! R13   R(6,7)                  1.3691         estimate D2E/DX2                !
 ! R14   R(7,8)                  0.971          estimate D2E/DX2                !
 ! R15   R(9,27)                 0.9829         estimate D2E/DX2                !
 ! R16   R(10,12)                1.303          estimate D2E/DX2                !
 ! R17   R(12,13)                1.4769         estimate D2E/DX2                !
 ! R18   R(12,14)                1.1012         estimate D2E/DX2                !
 ! R19   R(13,15)                1.4571         estimate D2E/DX2                !
 ! R20   R(15,17)                1.4021         estimate D2E/DX2                !
 ! R21   R(15,20)                1.4            estimate D2E/DX2                !
 ! R22   R(17,18)                1.3972         estimate D2E/DX2                !
 ! R23   R(17,19)                1.0878         estimate D2E/DX2                !
 ! R24   R(18,23)                1.3933         estimate D2E/DX2                !
 ! R25   R(18,24)                1.0862         estimate D2E/DX2                !
 ! R26   R(20,21)                1.3974         estimate D2E/DX2                !
 ! R27   R(20,22)                1.0881         estimate D2E/DX2                !
 ! R28   R(21,23)                1.3926         estimate D2E/DX2                !
 ! R29   R(21,26)                1.0868         estimate D2E/DX2                !
 ! R30   R(23,25)                1.0872         estimate D2E/DX2                !
 ! A1    A(2,1,6)              120.8147         estimate D2E/DX2                !
 ! A2    A(2,1,16)             116.9912         estimate D2E/DX2                !
 ! A3    A(6,1,16)             122.124          estimate D2E/DX2                !
 ! A4    A(1,2,3)              119.6756         estimate D2E/DX2                !
 ! A5    A(1,2,28)             119.0683         estimate D2E/DX2                !
 ! A6    A(3,2,28)             121.2294         estimate D2E/DX2                !
 ! A7    A(2,3,4)              119.8835         estimate D2E/DX2                !
 ! A8    A(2,3,9)              122.4998         estimate D2E/DX2                !
 ! A9    A(4,3,9)              117.5527         estimate D2E/DX2                !
 ! A10   A(3,4,5)              110.9687         estimate D2E/DX2                !
 ! A11   A(3,4,10)             112.234          estimate D2E/DX2                !
 ! A12   A(3,4,11)             108.9434         estimate D2E/DX2                !
 ! A13   A(5,4,10)             105.5605         estimate D2E/DX2                !
 ! A14   A(5,4,11)             110.8033         estimate D2E/DX2                !
 ! A15   A(10,4,11)            108.2804         estimate D2E/DX2                !
 ! A16   A(4,5,6)              115.46           estimate D2E/DX2                !
 ! A17   A(4,5,13)             111.4202         estimate D2E/DX2                !
 ! A18   A(6,5,13)             132.7894         estimate D2E/DX2                !
 ! A19   A(1,6,5)              119.1878         estimate D2E/DX2                !
 ! A20   A(1,6,7)              124.2556         estimate D2E/DX2                !
 ! A21   A(5,6,7)              116.5487         estimate D2E/DX2                !
 ! A22   A(6,7,8)              108.5676         estimate D2E/DX2                !
 ! A23   A(3,9,27)             104.5357         estimate D2E/DX2                !
 ! A24   A(4,10,12)            101.8312         estimate D2E/DX2                !
 ! A25   A(10,12,13)           119.5645         estimate D2E/DX2                !
 ! A26   A(10,12,14)           121.9058         estimate D2E/DX2                !
 ! A27   A(13,12,14)           118.3726         estimate D2E/DX2                !
 ! A28   A(5,13,12)            100.6799         estimate D2E/DX2                !
 ! A29   A(5,13,15)            133.7373         estimate D2E/DX2                !
 ! A30   A(12,13,15)           124.8873         estimate D2E/DX2                !
 ! A31   A(13,15,17)           119.8275         estimate D2E/DX2                !
 ! A32   A(13,15,20)           121.4309         estimate D2E/DX2                !
 ! A33   A(17,15,20)           118.7061         estimate D2E/DX2                !
 ! A34   A(15,17,18)           120.6391         estimate D2E/DX2                !
 ! A35   A(15,17,19)           120.5909         estimate D2E/DX2                !
 ! A36   A(18,17,19)           118.7644         estimate D2E/DX2                !
 ! A37   A(17,18,23)           120.0293         estimate D2E/DX2                !
 ! A38   A(17,18,24)           119.9721         estimate D2E/DX2                !
 ! A39   A(23,18,24)           119.9984         estimate D2E/DX2                !
 ! A40   A(15,20,21)           120.6762         estimate D2E/DX2                !
 ! A41   A(15,20,22)           120.4144         estimate D2E/DX2                !
 ! A42   A(21,20,22)           118.9093         estimate D2E/DX2                !
 ! A43   A(20,21,23)           120.0551         estimate D2E/DX2                !
 ! A44   A(20,21,26)           119.8807         estimate D2E/DX2                !
 ! A45   A(23,21,26)           120.0642         estimate D2E/DX2                !
 ! A46   A(18,23,21)           119.8915         estimate D2E/DX2                !
 ! A47   A(18,23,25)           120.0125         estimate D2E/DX2                !
 ! A48   A(21,23,25)           120.0959         estimate D2E/DX2                !
 ! D1    D(6,1,2,3)             17.1363         estimate D2E/DX2                !
 ! D2    D(6,1,2,28)          -161.0081         estimate D2E/DX2                !
 ! D3    D(16,1,2,3)          -165.8437         estimate D2E/DX2                !
 ! D4    D(16,1,2,28)           16.0119         estimate D2E/DX2                !
 ! D5    D(2,1,6,5)             -3.058          estimate D2E/DX2                !
 ! D6    D(2,1,6,7)            178.002          estimate D2E/DX2                !
 ! D7    D(16,1,6,5)          -179.9224         estimate D2E/DX2                !
 ! D8    D(16,1,6,7)             1.1376         estimate D2E/DX2                !
 ! D9    D(1,2,3,4)              1.2452         estimate D2E/DX2                !
 ! D10   D(1,2,3,9)           -175.772          estimate D2E/DX2                !
 ! D11   D(28,2,3,4)           179.3485         estimate D2E/DX2                !
 ! D12   D(28,2,3,9)             2.3314         estimate D2E/DX2                !
 ! D13   D(2,3,4,5)            -29.8646         estimate D2E/DX2                !
 ! D14   D(2,3,4,10)          -147.7056         estimate D2E/DX2                !
 ! D15   D(2,3,4,11)            92.3888         estimate D2E/DX2                !
 ! D16   D(9,3,4,5)            147.298          estimate D2E/DX2                !
 ! D17   D(9,3,4,10)            29.457          estimate D2E/DX2                !
 ! D18   D(9,3,4,11)           -90.4486         estimate D2E/DX2                !
 ! D19   D(2,3,9,27)           165.6207         estimate D2E/DX2                !
 ! D20   D(4,3,9,27)           -11.4622         estimate D2E/DX2                !
 ! D21   D(3,4,5,6)             42.4657         estimate D2E/DX2                !
 ! D22   D(3,4,5,13)          -131.7907         estimate D2E/DX2                !
 ! D23   D(10,4,5,6)           164.2929         estimate D2E/DX2                !
 ! D24   D(10,4,5,13)           -9.9634         estimate D2E/DX2                !
 ! D25   D(11,4,5,6)           -78.6996         estimate D2E/DX2                !
 ! D26   D(11,4,5,13)          107.0441         estimate D2E/DX2                !
 ! D27   D(3,4,10,12)          129.78           estimate D2E/DX2                !
 ! D28   D(5,4,10,12)            8.7729         estimate D2E/DX2                !
 ! D29   D(11,4,10,12)        -109.9292         estimate D2E/DX2                !
 ! D30   D(4,5,6,1)            -27.5558         estimate D2E/DX2                !
 ! D31   D(4,5,6,7)            151.4648         estimate D2E/DX2                !
 ! D32   D(13,5,6,1)           145.1506         estimate D2E/DX2                !
 ! D33   D(13,5,6,7)           -35.8288         estimate D2E/DX2                !
 ! D34   D(4,5,13,12)            6.2625         estimate D2E/DX2                !
 ! D35   D(4,5,13,15)          176.6765         estimate D2E/DX2                !
 ! D36   D(6,5,13,12)         -166.6648         estimate D2E/DX2                !
 ! D37   D(6,5,13,15)            3.7492         estimate D2E/DX2                !
 ! D38   D(1,6,7,8)              0.1068         estimate D2E/DX2                !
 ! D39   D(5,6,7,8)           -178.8587         estimate D2E/DX2                !
 ! D40   D(4,10,12,13)          -5.7892         estimate D2E/DX2                !
 ! D41   D(4,10,12,14)         178.8427         estimate D2E/DX2                !
 ! D42   D(10,12,13,5)          -0.1668         estimate D2E/DX2                !
 ! D43   D(10,12,13,15)       -171.7321         estimate D2E/DX2                !
 ! D44   D(14,12,13,5)         175.3647         estimate D2E/DX2                !
 ! D45   D(14,12,13,15)          3.7993         estimate D2E/DX2                !
 ! D46   D(5,13,15,17)         137.9299         estimate D2E/DX2                !
 ! D47   D(5,13,15,20)         -44.267          estimate D2E/DX2                !
 ! D48   D(12,13,15,17)        -53.5777         estimate D2E/DX2                !
 ! D49   D(12,13,15,20)        124.2253         estimate D2E/DX2                !
 ! D50   D(13,15,17,18)        178.4835         estimate D2E/DX2                !
 ! D51   D(13,15,17,19)         -2.3888         estimate D2E/DX2                !
 ! D52   D(20,15,17,18)          0.6207         estimate D2E/DX2                !
 ! D53   D(20,15,17,19)        179.7484         estimate D2E/DX2                !
 ! D54   D(13,15,20,21)       -178.4101         estimate D2E/DX2                !
 ! D55   D(13,15,20,22)          1.4384         estimate D2E/DX2                !
 ! D56   D(17,15,20,21)         -0.583          estimate D2E/DX2                !
 ! D57   D(17,15,20,22)        179.2654         estimate D2E/DX2                !
 ! D58   D(15,17,18,23)         -0.351          estimate D2E/DX2                !
 ! D59   D(15,17,18,24)        179.4744         estimate D2E/DX2                !
 ! D60   D(19,17,18,23)       -179.4945         estimate D2E/DX2                !
 ! D61   D(19,17,18,24)          0.331          estimate D2E/DX2                !
 ! D62   D(17,18,23,21)          0.032          estimate D2E/DX2                !
 ! D63   D(17,18,23,25)        179.9151         estimate D2E/DX2                !
 ! D64   D(24,18,23,21)       -179.7934         estimate D2E/DX2                !
 ! D65   D(24,18,23,25)          0.0897         estimate D2E/DX2                !
 ! D66   D(15,20,21,23)          0.2757         estimate D2E/DX2                !
 ! D67   D(15,20,21,26)       -179.7622         estimate D2E/DX2                !
 ! D68   D(22,20,21,23)       -179.575          estimate D2E/DX2                !
 ! D69   D(22,20,21,26)          0.3871         estimate D2E/DX2                !
 ! D70   D(20,21,23,18)          0.0056         estimate D2E/DX2                !
 ! D71   D(20,21,23,25)       -179.8774         estimate D2E/DX2                !
 ! D72   D(26,21,23,18)       -179.9564         estimate D2E/DX2                !
 ! D73   D(26,21,23,25)          0.1606         estimate D2E/DX2                !
 --------------------------------------------------------------------------------
 Trust Radius=3.00D-01 FncErr=1.00D-07 GrdErr=1.00D-06 EigMax=2.50D+02 EigMin=1.00D-04
 Number of steps in this run=    161 maximum allowed number of steps=    168.
 GradGradGradGradGradGradGradGradGradGradGradGradGradGradGradGradGradGrad

 Leave Link  103 at Tue Dec  3 10:43:33 2019, MaxMem=   104857600 cpu:               0.0 elap:               0.0
 (Enter /opt/software/gaussian/g16/l202.exe)
                          Input orientation:                          
 ---------------------------------------------------------------------
 Center     Atomic      Atomic             Coordinates (Angstroms)
 Number     Number       Type             X           Y           Z
 ---------------------------------------------------------------------
      1          6           0       -0.790000    3.390000    0.133000
      2          6           0       -1.201000    2.133000   -0.486000
      3          6           0       -0.448000    1.032000   -0.320000
      4          6           0        0.799000    1.095000    0.526000
      5          6           0        1.409000    2.465000    0.482000
      6          6           0        0.475000    3.564000    0.571000
      7          8           0        0.946000    4.724000    1.125000
      8          1           0        0.224000    5.373000    1.144000
      9          8           0       -0.734000   -0.162000   -0.946000
     10          7           0        1.853000    0.175000    0.040000
     11          1           0        0.545000    0.814000    1.557000
     12          6           0        2.889000    0.963000   -0.019000
     13          6           0        2.722000    2.407000    0.242000
     14          1           0        3.880000    0.599000   -0.332000
     15          6           0        3.755000    3.415000    0.042000
     16          1           0       -1.529000    4.182000    0.176000
     17          6           0        5.012000    3.254000    0.642000
     18          6           0        6.025000    4.194000    0.436000
     19          1           0        5.212000    2.402000    1.288000
     20          6           0        3.539000    4.529000   -0.778000
     21          6           0        4.552000    5.469000   -0.985000
     22          1           0        2.578000    4.675000   -1.267000
     23          6           0        5.794000    5.301000   -0.378000
     24          1           0        6.992000    4.063000    0.913000
     25          1           0        6.582000    6.033000   -0.537000
     26          1           0        4.369000    6.331000   -1.621000
     27          1           0        0.083000   -0.698000   -0.840000
     28          1           0       -2.096000    2.115000   -1.098000
 ---------------------------------------------------------------------
                    Distance matrix (angstroms):
                    1          2          3          4          5
     1  C    0.000000
     2  C    1.460182   0.000000
     3  C    2.425353   1.344160   0.000000
     4  C    2.818935   2.470139   1.508209   0.000000
     5  C    2.411022   2.803453   2.478940   1.500312   0.000000
     6  C    1.349943   2.444174   2.838456   2.490575   1.445018
     7  O    2.403605   3.730712   4.202633   3.681039   2.393930
     8  H    2.445937   3.896810   4.630244   4.360485   3.209195
     9  O    3.712692   2.386779   1.378154   2.469195   3.678690
    10  N    4.162970   3.665700   2.481663   1.481051   2.374152
    11  H    3.231993   2.993681   2.134643   1.098380   2.151261
    12  C    4.410042   4.279613   3.351258   2.163920   2.167350
    13  C    3.648604   3.999374   3.500767   2.345193   1.336014
    14  H    5.460294   5.309749   4.349623   3.236470   3.201623
    15  C    4.545980   5.146284   4.845095   3.788745   2.569011
    16  H    1.084082   2.178125   3.367058   3.882223   3.416661
    17  C    5.825872   6.413298   5.972799   4.735410   3.691846
    18  C    6.868948   7.570527   7.243584   6.076428   4.929403
    19  H    6.191460   6.659280   6.041371   4.665133   3.887983
    20  C    4.568094   5.319180   5.323058   4.582616   3.222514
    21  C    5.840302   6.668951   6.717827   5.958188   4.588524
    22  H    3.867124   4.620884   4.829589   4.381334   3.051174
    23  C    6.874743   7.679708   7.562426   6.592244   5.292516
    24  H    7.849895   8.532722   8.127783   6.878375   5.823165
    25  H    7.860072   8.705613   8.630063   7.678340   6.366232
    26  H    6.192033   7.066564   7.278426   6.691054   5.303788
    27  H    4.291923   3.128663   1.882886   2.365050   3.675667
    28  H    2.201504   1.084386   2.119924   3.472578   3.860560
                    6          7          8          9         10
     6  C    0.000000
     7  O    1.369072   0.000000
     8  H    1.914108   0.971003   0.000000
     9  O    4.200720   5.566367   5.993504   0.000000
    10  N    3.696778   4.763746   5.558027   2.788966   0.000000
    11  H    2.922259   3.954178   4.588910   2.975471   2.102492
    12  C    3.597318   4.385100   5.282319   3.905263   1.302966
    13  C    2.548705   3.049976   3.981302   4.467107   2.403703
    14  H    4.604417   5.267526   6.191606   4.716473   2.104017
    15  C    3.325724   3.282811   4.185227   5.824276   3.757021
    16  H    2.134002   2.705548   2.329917   4.556451   5.245233
    17  C    4.548133   4.350465   5.259953   6.870758   4.452182
    18  C    5.587273   5.152850   5.961787   8.158967   5.806441
    19  H    4.929858   4.859733   5.807557   6.849801   4.218994
    20  C    3.484124   3.222279   3.923728   6.347616   4.740151
    21  C    4.761522   4.243862   4.824255   7.723437   6.030063
    22  H    3.005857   2.896116   3.441139   5.871027   4.741716
    23  C    5.675344   5.108331   5.774649   8.531224   6.479358
    24  H    6.545017   6.085719   6.897484   8.999866   6.502922
    25  H    6.679751   6.019985   6.609503   9.595268   7.550664
    26  H    5.255891   4.673317   5.073856   8.285848   6.854598
    27  H    4.506576   5.831302   6.388519   0.982864   2.160886
    28  H    3.390458   4.582835   4.585142   2.657607   4.544584
                   11         12         13         14         15
    11  H    0.000000
    12  C    2.828482   0.000000
    13  C    3.001034   1.476870   0.000000
    14  H    3.838850   1.101157   2.222454   0.000000
    15  C    4.400514   2.601150   1.457104   2.843476   0.000000
    16  H    4.189518   5.469800   4.607166   6.507936   5.341058
    17  C    5.171549   3.192606   2.474168   3.046166   1.402131
    18  C    6.535399   4.525581   3.760427   4.256157   2.432073
    19  H    4.937104   3.029076   2.700785   2.765761   2.168302
    20  C    5.312013   3.703368   2.492142   3.969899   1.400019
    21  C    6.647318   4.899261   3.772303   4.959324   2.430813
    22  H    5.197633   3.928507   2.727937   4.379864   2.164812
    23  C    7.171429   5.233178   4.265773   5.076841   2.809078
    24  H    7.248072   5.226206   4.628766   4.820152   3.414193
    25  H    8.250343   6.293765   5.352973   6.072165   3.896292
    26  H    7.426974   5.794155   4.645552   5.895461   3.412568
    27  H    2.871445   3.362529   4.216168   4.044438   5.583751
    28  H    3.964405   5.228917   5.009390   6.212696   6.101131
                   16         17         18         19         20
    16  H    0.000000
    17  C    6.622916   0.000000
    18  C    7.558483   1.397213   0.000000
    19  H    7.060172   1.087759   2.144327   0.000000
    20  C    5.168670   2.410758   2.786793   3.404617   0.000000
    21  C    6.323199   2.786567   2.411347   3.874096   1.397361
    22  H    4.380953   3.404097   3.874710   4.316539   1.088098
    23  C    7.428688   2.417050   1.393343   3.393889   2.416818
    24  H    8.553641   2.155997   1.086176   2.463320   3.872963
    25  H    8.350023   3.402614   2.153810   4.288553   3.402932
    26  H    6.529457   3.873312   3.397110   4.960844   2.155633
    27  H    5.238817   6.489196   7.801744   6.359640   6.266523
    28  H    2.493402   7.405983   8.522091   7.692999   6.138650
                   21         22         23         24         25
    21  C    0.000000
    22  H    2.146308   0.000000
    23  C    1.392565   3.394827   0.000000
    24  H    3.396004   4.960881   2.152796   0.000000
    25  H    2.153996   4.290580   1.087221   2.480222   0.000000
    26  H    1.086752   2.464819   2.153271   4.294777   2.482182
    27  H    7.617406   5.939401   8.295599   8.571722   9.361366
    28  H    7.447012   5.331832   8.539385   9.509499   9.537983
                   26         27         28
    26  H    0.000000
    27  H    8.269619   0.000000
    28  H    7.735917   3.567573   0.000000
 Stoichiometry    C14H11NO2
 Framework group  C1[X(C14H11NO2)]
 Deg. of freedom    78
 Full point group                 C1      NOp   1
 Largest Abelian subgroup         C1      NOp   1
 Largest concise Abelian subgroup C1      NOp   1
                         Standard orientation:                         
 ---------------------------------------------------------------------
 Center     Atomic      Atomic             Coordinates (Angstroms)
 Number     Number       Type             X           Y           Z
 ---------------------------------------------------------------------
      1          6           0        2.173529    2.000992   -0.075868
      2          6           0        3.189424    1.120236    0.493656
      3          6           0        3.118456   -0.204559    0.277677
      4          6           0        2.008307   -0.768814   -0.573134
      5          6           0        0.774232    0.078967   -0.476889
      6          6           0        0.996617    1.506273   -0.514591
      7          8           0       -0.018857    2.270559   -1.023546
      8          1           0        0.258411    3.201051   -1.011171
      9          8           0        3.994969   -1.097091    0.855967
     10          7           0        1.596507   -2.121410   -0.132207
     11          1           0        2.355171   -0.836193   -1.613126
     12          6           0        0.302698   -1.992461   -0.047652
     13          6           0       -0.311904   -0.664584   -0.248038
     14          1           0       -0.348010   -2.831662    0.243668
     15          6           0       -1.715630   -0.351982   -0.013552
     16          1           0        2.390357    3.063154   -0.081489
     17          6           0       -2.713609   -1.121826   -0.627839
     18          6           0       -4.064721   -0.856979   -0.390020
     19          1           0       -2.450234   -1.927489   -1.309573
     20          6           0       -2.099208    0.678644    0.852895
     21          6           0       -3.450304    0.943452    1.091714
     22          1           0       -1.347701    1.285568    1.353733
     23          6           0       -4.431946    0.175736    0.470242
     24          1           0       -4.828978   -1.454709   -0.878291
     25          1           0       -5.483389    0.382475    0.654028
     26          1           0       -3.733555    1.749155    1.763756
     27          1           0        3.575747   -1.976022    0.722721
     28          1           0        3.972088    1.548227    1.110223
 ---------------------------------------------------------------------
 Rotational constants (GHZ):           1.0268340           0.3130556           0.2619941
 Leave Link  202 at Tue Dec  3 10:43:34 2019, MaxMem=   104857600 cpu:               0.0 elap:               0.0
 (Enter /opt/software/gaussian/g16/l301.exe)
 Standard basis: 6-311+G(d,p) (5D, 7F)
 Ernie: Thresh=  0.10000D-02 Tol=  0.10000D-05 Strict=F.
 There are   457 symmetry adapted cartesian basis functions of A   symmetry.
 There are   440 symmetry adapted basis functions of A   symmetry.
   440 basis functions,   700 primitive gaussians,   457 cartesian basis functions
    59 alpha electrons       59 beta electrons
       nuclear repulsion energy      1118.0499089277 Hartrees.
 IExCor= 4235 DFT=T Ex+Corr=M06 ExCW=0 ScaHFX=  0.270000
 ScaDFX=  1.000000  1.000000  1.000000  1.000000 ScalE2=  1.000000  1.000000
 IRadAn=      5 IRanWt=     -1 IRanGd=            0 ICorTp=0 IEmpDi=  4
 NAtoms=   28 NActive=   28 NUniq=   28 SFac= 1.00D+00 NAtFMM=   60 NAOKFM=F Big=F
 Integral buffers will be    131072 words long.
 Raffenetti 2 integral format.
 Two-electron integral symmetry is turned on.
 ------------------------------------------------------------------------------
 Polarizable Continuum Model (PCM)
 =================================
 Model                : PCM.
 Atomic radii         : UFF (Universal Force Field).
 Polarization charges : Total charges.
 Charge compensation  : None.
 Solution method      : On-the-fly selection.
 Cavity type          : Scaled VdW (van der Waals Surface) (Alpha=1.100).
 Cavity algorithm     : GePol (No added spheres)
                        Default sphere list used, NSphG=   28.
                        Lebedev-Laikov grids with approx.  5.0 points / Ang**2.
                        Smoothing algorithm: York/Karplus (Gamma=1.0000).
                        Polarization charges: spherical gaussians, with
                                              point-specific exponents (IZeta= 3).
                        Self-potential: point-specific (ISelfS= 7).
                        Self-field    : sphere-specific E.n sum rule (ISelfD= 2).
 1st derivatives      : Analytical E(r).r(x)/FMM algorithm (CHGder, D1EAlg=3).
                        Cavity 1st derivative terms included.
 Solvent              : Water, Eps=  78.355300 Eps(inf)=   1.777849
 ------------------------------------------------------------------------------
 GePol: Number of generator spheres                  =      28
 GePol: Total number of spheres                      =      28
 GePol: Number of exposed spheres                    =      28 (100.00%)
 GePol: Number of points                             =    2204
 GePol: Average weight of points                     =       0.13
 GePol: Minimum weight of points                     =   0.43D-09
 GePol: Maximum weight of points                     =    0.20577
 GePol: Number of points with low weight             =     158
 GePol: Fraction of low-weight points (<1% of avg)   =       7.17%
 GePol: Cavity surface area                          =    284.649 Ang**2
 GePol: Cavity volume                                =    306.738 Ang**3
 Leave Link  301 at Tue Dec  3 10:43:34 2019, MaxMem=   104857600 cpu:               0.1 elap:               0.1
 (Enter /opt/software/gaussian/g16/l302.exe)
 NPDir=0 NMtPBC=     1 NCelOv=     1 NCel=       1 NClECP=     1 NCelD=      1
         NCelK=      1 NCelE2=     1 NClLst=     1 CellRange=     0.0.
 One-electron integrals computed using PRISM.
 One-electron integral symmetry used in STVInt
 NBasis=   440 RedAO= T EigKep=  1.26D-06  NBF=   440
 NBsUse=   438 1.00D-06 EigRej=  7.75D-07 NBFU=   438
 Precomputing XC quadrature grid using
 IXCGrd= 4 IRadAn=           5 IRanWt=          -1 IRanGd=           0 AccXCQ= 0.00D+00.
 Generated NRdTot=       0 NPtTot=           0 NUsed=           0 NTot=          32
 NSgBfM=   456   456   456   456   456 MxSgAt=    28 MxSgA2=    28.
 Leave Link  302 at Tue Dec  3 10:43:35 2019, MaxMem=   104857600 cpu:               1.1 elap:               1.1
 (Enter /opt/software/gaussian/g16/l303.exe)
 DipDrv:  MaxL=1.
 Leave Link  303 at Tue Dec  3 10:43:35 2019, MaxMem=   104857600 cpu:               0.1 elap:               0.1
 (Enter /opt/software/gaussian/g16/l401.exe)
 ExpMin= 4.38D-02 ExpMax= 8.59D+03 ExpMxC= 1.30D+03 IAcc=3 IRadAn=         5 AccDes= 0.00D+00
 Harris functional with IExCor= 1009 and IRadAn=       5 diagonalized for initial guess.
 HarFok:  IExCor= 1009 AccDes= 0.00D+00 IRadAn=         5 IDoV= 1 UseB2=F ITyADJ=14
 ICtDFT=  3500011 ScaDFX=  1.000000  1.000000  1.000000  1.000000
 FoFCou: FMM=F IPFlag=           0 FMFlag=      100000 FMFlg1=           0
         NFxFlg=           0 DoJE=T BraDBF=F KetDBF=T FulRan=T
         wScrn=  0.000000 ICntrl=       500 IOpCl=  0 I1Cent=   200000004 NGrid=           0
         NMat0=    1 NMatS0=      1 NMatT0=    0 NMatD0=    1 NMtDS0=    0 NMtDT0=    0
 Petite list used in FoFCou.
 Harris En= -744.770655388447    
 JPrj=0 DoOrth=F DoCkMO=F.
 Leave Link  401 at Tue Dec  3 10:43:47 2019, MaxMem=   104857600 cpu:              11.7 elap:              11.7
 (Enter /opt/software/gaussian/g16/l502.exe)
 Integral symmetry usage will be decided dynamically.
 Closed shell SCF:
 Using DIIS extrapolation, IDIIS=  1040.
 NGot=   104857600 LenX=   104432154 LenY=   104222848
 Requested convergence on RMS density matrix=1.00D-08 within 128 cycles.
 Requested convergence on MAX density matrix=1.00D-06.
 Requested convergence on             energy=1.00D-06.
 No special actions if energy rises.
 Fock matrices will be formed incrementally for  20 cycles.

 Cycle   1  Pass 1  IDiag  1:
 FoFJK:  IHMeth= 1 ICntrl=       0 DoSepK=F KAlg= 0 I1Cent=           0 FoldK=F
 IRaf= 850000000 NMat=       1 IRICut=       1 DoRegI=T DoRafI=F ISym2E= 0 IDoP0=0 IntGTp=1.
 FoFCou: FMM=F IPFlag=           0 FMFlag=      100000 FMFlg1=           0
         NFxFlg=           0 DoJE=F BraDBF=F KetDBF=F FulRan=T
         wScrn=  0.000000 ICntrl=         0 IOpCl=  0 I1Cent=           0 NGrid=           0
         NMat0=    1 NMatS0=      1 NMatT0=    0 NMatD0=    1 NMtDS0=    0 NMtDT0=    0
 Symmetry not used in FoFCou.
 Inv3:  Mode=1 IEnd=    14572848.
 Iteration    1 A*A^-1 deviation from unit magnitude is 3.77D-15 for   1498.
 Iteration    1 A*A^-1 deviation from orthogonality  is 1.83D-15 for   1604    578.
 Iteration    1 A^-1*A deviation from unit magnitude is 3.33D-15 for   1498.
 Iteration    1 A^-1*A deviation from orthogonality  is 5.78D-15 for   1928   1906.
 E= -744.649762710057    
 DIIS: error= 1.55D-02 at cycle   1 NSaved=   1.
 NSaved= 1 IEnMin= 1 EnMin= -744.649762710057     IErMin= 1 ErrMin= 1.55D-02
 ErrMax= 1.55D-02  0.00D+00 EMaxC= 1.00D-01 BMatC= 2.96D-01 BMatP= 2.96D-01
 IDIUse=3 WtCom= 8.45D-01 WtEn= 1.55D-01
 Coeff-Com:  0.100D+01
 Coeff-En:   0.100D+01
 Coeff:      0.100D+01
 Gap=     0.118 Goal=   None    Shift=    0.000
 GapD=    0.118 DampG=1.000 DampE=0.500 DampFc=0.5000 IDamp=-1.
 Damping current iteration by 5.00D-01
 RMSDP=3.78D-02 MaxDP=3.53D+00              OVMax= 1.86D-01

 Cycle   2  Pass 1  IDiag  1:
 RMSU=  1.84D-02    CP:  1.05D+00
 E= -744.781517955312     Delta-E=       -0.131755245255 Rises=F Damp=T
 DIIS: error= 3.24D-03 at cycle   2 NSaved=   2.
 NSaved= 2 IEnMin= 2 EnMin= -744.781517955312     IErMin= 2 ErrMin= 3.24D-03
 ErrMax= 3.24D-03  0.00D+00 EMaxC= 1.00D-01 BMatC= 1.59D-02 BMatP= 2.96D-01
 IDIUse=3 WtCom= 9.68D-01 WtEn= 3.24D-02
 Coeff-Com:  0.196D-01 0.980D+00
 Coeff-En:   0.368D-01 0.963D+00
 Coeff:      0.202D-01 0.980D+00
 Gap=     0.161 Goal=   None    Shift=    0.000
 RMSDP=2.65D-02 MaxDP=5.27D+00 DE=-1.32D-01 OVMax= 1.28D-01

 Cycle   3  Pass 1  IDiag  1:
 RMSU=  1.57D-02    CP:  8.14D-01  6.45D-01
 E= -744.925286104217     Delta-E=       -0.143768148906 Rises=F Damp=F
 DIIS: error= 3.02D-03 at cycle   3 NSaved=   3.
 NSaved= 3 IEnMin= 3 EnMin= -744.925286104217     IErMin= 3 ErrMin= 3.02D-03
 ErrMax= 3.02D-03  0.00D+00 EMaxC= 1.00D-01 BMatC= 9.34D-03 BMatP= 1.59D-02
 IDIUse=3 WtCom= 9.70D-01 WtEn= 3.02D-02
 Coeff-Com: -0.425D-01 0.430D+00 0.613D+00
 Coeff-En:   0.000D+00 0.000D+00 0.100D+01
 Coeff:     -0.412D-01 0.417D+00 0.624D+00
 Gap=     0.132 Goal=   None    Shift=    0.000
 RMSDP=4.33D-03 MaxDP=5.83D-01 DE=-1.44D-01 OVMax= 4.19D-02

 Cycle   4  Pass 1  IDiag  1:
 RMSU=  2.20D-03    CP:  7.81D-01  6.90D-01  8.59D-01
 E= -744.932004487800     Delta-E=       -0.006718383583 Rises=F Damp=F
 DIIS: error= 1.32D-03 at cycle   4 NSaved=   4.
 NSaved= 4 IEnMin= 4 EnMin= -744.932004487800     IErMin= 4 ErrMin= 1.32D-03
 ErrMax= 1.32D-03  0.00D+00 EMaxC= 1.00D-01 BMatC= 1.99D-03 BMatP= 9.34D-03
 IDIUse=3 WtCom= 9.87D-01 WtEn= 1.32D-02
 Coeff-Com: -0.230D-01 0.119D+00 0.352D+00 0.552D+00
 Coeff-En:   0.000D+00 0.000D+00 0.186D+00 0.814D+00
 Coeff:     -0.227D-01 0.118D+00 0.350D+00 0.555D+00
 Gap=     0.133 Goal=   None    Shift=    0.000
 RMSDP=1.77D-03 MaxDP=1.57D-01 DE=-6.72D-03 OVMax= 1.69D-02

 Cycle   5  Pass 1  IDiag  1:
 RMSU=  8.69D-04    CP:  7.64D-01  7.10D-01  8.45D-01  9.00D-01
 E= -744.933954159286     Delta-E=       -0.001949671486 Rises=F Damp=F
 DIIS: error= 2.63D-04 at cycle   5 NSaved=   5.
 NSaved= 5 IEnMin= 5 EnMin= -744.933954159286     IErMin= 5 ErrMin= 2.63D-04
 ErrMax= 2.63D-04  0.00D+00 EMaxC= 1.00D-01 BMatC= 9.06D-05 BMatP= 1.99D-03
 IDIUse=3 WtCom= 9.97D-01 WtEn= 2.63D-03
 Coeff-Com: -0.734D-02 0.296D-01 0.122D+00 0.256D+00 0.600D+00
 Coeff-En:   0.000D+00 0.000D+00 0.000D+00 0.000D+00 0.100D+01
 Coeff:     -0.732D-02 0.295D-01 0.122D+00 0.255D+00 0.601D+00
 Gap=     0.133 Goal=   None    Shift=    0.000
 RMSDP=3.41D-04 MaxDP=2.46D-02 DE=-1.95D-03 OVMax= 2.94D-03

 Cycle   6  Pass 1  IDiag  1:
 RMSU=  2.57D-04    CP:  7.63D-01  7.00D-01  8.46D-01  8.94D-01  1.01D+00
 E= -744.934018979945     Delta-E=       -0.000064820659 Rises=F Damp=F
 DIIS: error= 1.81D-04 at cycle   6 NSaved=   6.
 NSaved= 6 IEnMin= 6 EnMin= -744.934018979945     IErMin= 6 ErrMin= 1.81D-04
 ErrMax= 1.81D-04  0.00D+00 EMaxC= 1.00D-01 BMatC= 2.21D-05 BMatP= 9.06D-05
 IDIUse=3 WtCom= 9.98D-01 WtEn= 1.81D-03
 Coeff-Com: -0.202D-02 0.462D-02 0.343D-01 0.915D-01 0.369D+00 0.503D+00
 Coeff-En:   0.000D+00 0.000D+00 0.000D+00 0.000D+00 0.164D+00 0.836D+00
 Coeff:     -0.202D-02 0.461D-02 0.342D-01 0.913D-01 0.369D+00 0.503D+00
 Gap=     0.133 Goal=   None    Shift=    0.000
 RMSDP=1.44D-04 MaxDP=1.40D-02 DE=-6.48D-05 OVMax= 9.00D-04

 Cycle   7  Pass 1  IDiag  1:
 RMSU=  9.70D-05    CP:  7.63D-01  7.04D-01  8.48D-01  9.09D-01  1.03D+00
                    CP:  1.02D+00
 E= -744.934036608304     Delta-E=       -0.000017628359 Rises=F Damp=F
 DIIS: error= 3.99D-05 at cycle   7 NSaved=   7.
 NSaved= 7 IEnMin= 7 EnMin= -744.934036608304     IErMin= 7 ErrMin= 3.99D-05
 ErrMax= 3.99D-05  0.00D+00 EMaxC= 1.00D-01 BMatC= 7.61D-07 BMatP= 2.21D-05
 IDIUse=1 WtCom= 1.00D+00 WtEn= 0.00D+00
 Coeff-Com: -0.219D-03-0.328D-03 0.574D-02 0.201D-01 0.117D+00 0.211D+00
 Coeff-Com:  0.647D+00
 Coeff:     -0.219D-03-0.328D-03 0.574D-02 0.201D-01 0.117D+00 0.211D+00
 Coeff:      0.647D+00
 Gap=     0.134 Goal=   None    Shift=    0.000
 RMSDP=6.05D-05 MaxDP=6.23D-03 DE=-1.76D-05 OVMax= 3.18D-04

 Cycle   8  Pass 1  IDiag  1:
 RMSU=  2.64D-05    CP:  7.63D-01  7.04D-01  8.48D-01  9.13D-01  1.05D+00
                    CP:  1.01D+00  1.01D+00
 E= -744.934037137333     Delta-E=       -0.000000529029 Rises=F Damp=F
 DIIS: error= 2.10D-05 at cycle   8 NSaved=   8.
 NSaved= 8 IEnMin= 8 EnMin= -744.934037137333     IErMin= 8 ErrMin= 2.10D-05
 ErrMax= 2.10D-05  0.00D+00 EMaxC= 1.00D-01 BMatC= 2.58D-07 BMatP= 7.61D-07
 IDIUse=1 WtCom= 1.00D+00 WtEn= 0.00D+00
 Coeff-Com:  0.253D-03-0.106D-02-0.291D-02-0.534D-02 0.624D-03 0.258D-01
 Coeff-Com:  0.387D+00 0.595D+00
 Coeff:      0.253D-03-0.106D-02-0.291D-02-0.534D-02 0.624D-03 0.258D-01
 Coeff:      0.387D+00 0.595D+00
 Gap=     0.134 Goal=   None    Shift=    0.000
 RMSDP=2.62D-05 MaxDP=3.00D-03 DE=-5.29D-07 OVMax= 1.95D-04

 Cycle   9  Pass 1  IDiag  1:
 RMSU=  8.75D-06    CP:  7.62D-01  7.04D-01  8.48D-01  9.15D-01  1.06D+00
                    CP:  1.02D+00  1.08D+00  1.22D+00
 E= -744.934037365720     Delta-E=       -0.000000228387 Rises=F Damp=F
 DIIS: error= 5.30D-06 at cycle   9 NSaved=   9.
 NSaved= 9 IEnMin= 9 EnMin= -744.934037365720     IErMin= 9 ErrMin= 5.30D-06
 ErrMax= 5.30D-06  0.00D+00 EMaxC= 1.00D-01 BMatC= 2.94D-08 BMatP= 2.58D-07
 IDIUse=1 WtCom= 1.00D+00 WtEn= 0.00D+00
 Coeff-Com:  0.150D-03-0.537D-03-0.203D-02-0.473D-02-0.107D-01-0.850D-02
 Coeff-Com:  0.150D+00 0.333D+00 0.544D+00
 Coeff:      0.150D-03-0.537D-03-0.203D-02-0.473D-02-0.107D-01-0.850D-02
 Coeff:      0.150D+00 0.333D+00 0.544D+00
 Gap=     0.134 Goal=   None    Shift=    0.000
 RMSDP=8.08D-06 MaxDP=4.68D-04 DE=-2.28D-07 OVMax= 7.42D-05

 Cycle  10  Pass 1  IDiag  1:
 RMSU=  3.80D-06    CP:  7.62D-01  7.04D-01  8.48D-01  9.15D-01  1.06D+00
                    CP:  1.03D+00  1.12D+00  1.32D+00  1.08D+00
 E= -744.934037391218     Delta-E=       -0.000000025499 Rises=F Damp=F
 DIIS: error= 2.23D-06 at cycle  10 NSaved=  10.
 NSaved=10 IEnMin=10 EnMin= -744.934037391218     IErMin=10 ErrMin= 2.23D-06
 ErrMax= 2.23D-06  0.00D+00 EMaxC= 1.00D-01 BMatC= 3.34D-09 BMatP= 2.94D-08
 IDIUse=1 WtCom= 1.00D+00 WtEn= 0.00D+00
 Coeff-Com:  0.315D-04-0.863D-04-0.502D-03-0.148D-02-0.552D-02-0.995D-02
 Coeff-Com:  0.683D-02 0.621D-01 0.276D+00 0.673D+00
 Coeff:      0.315D-04-0.863D-04-0.502D-03-0.148D-02-0.552D-02-0.995D-02
 Coeff:      0.683D-02 0.621D-01 0.276D+00 0.673D+00
 Gap=     0.134 Goal=   None    Shift=    0.000
 RMSDP=3.61D-06 MaxDP=5.19D-04 DE=-2.55D-08 OVMax= 2.90D-05

 Cycle  11  Pass 1  IDiag  1:
 RMSU=  1.72D-06    CP:  7.62D-01  7.04D-01  8.48D-01  9.15D-01  1.06D+00
                    CP:  1.04D+00  1.12D+00  1.36D+00  1.10D+00  9.74D-01
 E= -744.934037394677     Delta-E=       -0.000000003459 Rises=F Damp=F
 DIIS: error= 4.79D-07 at cycle  11 NSaved=  11.
 NSaved=11 IEnMin=11 EnMin= -744.934037394677     IErMin=11 ErrMin= 4.79D-07
 ErrMax= 4.79D-07  0.00D+00 EMaxC= 1.00D-01 BMatC= 3.32D-10 BMatP= 3.34D-09
 IDIUse=1 WtCom= 1.00D+00 WtEn= 0.00D+00
 Coeff-Com:  0.642D-06 0.786D-05-0.336D-04-0.221D-03-0.152D-02-0.387D-02
 Coeff-Com: -0.108D-01-0.330D-02 0.709D-01 0.303D+00 0.646D+00
 Coeff:      0.642D-06 0.786D-05-0.336D-04-0.221D-03-0.152D-02-0.387D-02
 Coeff:     -0.108D-01-0.330D-02 0.709D-01 0.303D+00 0.646D+00
 Gap=     0.134 Goal=   None    Shift=    0.000
 RMSDP=9.03D-07 MaxDP=6.46D-05 DE=-3.46D-09 OVMax= 2.28D-05

 Cycle  12  Pass 1  IDiag  1:
 RMSU=  4.43D-07    CP:  7.62D-01  7.04D-01  8.48D-01  9.15D-01  1.06D+00
                    CP:  1.04D+00  1.13D+00  1.38D+00  1.12D+00  1.00D+00
                    CP:  1.03D+00
 E= -744.934037395084     Delta-E=       -0.000000000407 Rises=F Damp=F
 DIIS: error= 3.36D-07 at cycle  12 NSaved=  12.
 NSaved=12 IEnMin=12 EnMin= -744.934037395084     IErMin=12 ErrMin= 3.36D-07
 ErrMax= 3.36D-07  0.00D+00 EMaxC= 1.00D-01 BMatC= 8.57D-11 BMatP= 3.32D-10
 IDIUse=1 WtCom= 1.00D+00 WtEn= 0.00D+00
 Coeff-Com: -0.454D-05 0.185D-04 0.691D-04 0.134D-03 0.706D-04-0.353D-03
 Coeff-Com: -0.690D-02-0.118D-01-0.922D-02 0.352D-01 0.368D+00 0.625D+00
 Coeff:     -0.454D-05 0.185D-04 0.691D-04 0.134D-03 0.706D-04-0.353D-03
 Coeff:     -0.690D-02-0.118D-01-0.922D-02 0.352D-01 0.368D+00 0.625D+00
 Gap=     0.134 Goal=   None    Shift=    0.000
 RMSDP=4.45D-07 MaxDP=3.90D-05 DE=-4.07D-10 OVMax= 4.07D-06

 Cycle  13  Pass 1  IDiag  1:
 RMSU=  2.01D-07    CP:  7.62D-01  7.04D-01  8.48D-01  9.15D-01  1.06D+00
                    CP:  1.04D+00  1.12D+00  1.38D+00  1.12D+00  9.81D-01
                    CP:  1.20D+00  9.67D-01
 E= -744.934037395178     Delta-E=       -0.000000000094 Rises=F Damp=F
 DIIS: error= 6.89D-08 at cycle  13 NSaved=  13.
 NSaved=13 IEnMin=13 EnMin= -744.934037395178     IErMin=13 ErrMin= 6.89D-08
 ErrMax= 6.89D-08  0.00D+00 EMaxC= 1.00D-01 BMatC= 5.07D-12 BMatP= 8.57D-11
 IDIUse=1 WtCom= 1.00D+00 WtEn= 0.00D+00
 Coeff-Com: -0.186D-05 0.696D-05 0.321D-04 0.763D-04 0.135D-03 0.194D-03
 Coeff-Com: -0.210D-02-0.436D-02-0.101D-01-0.160D-01 0.114D+00 0.240D+00
 Coeff-Com:  0.679D+00
 Coeff:     -0.186D-05 0.696D-05 0.321D-04 0.763D-04 0.135D-03 0.194D-03
 Coeff:     -0.210D-02-0.436D-02-0.101D-01-0.160D-01 0.114D+00 0.240D+00
 Coeff:      0.679D+00
 Gap=     0.134 Goal=   None    Shift=    0.000
 RMSDP=1.34D-07 MaxDP=1.28D-05 DE=-9.39D-11 OVMax= 2.34D-06

 Cycle  14  Pass 1  IDiag  1:
 RMSU=  4.48D-08    CP:  7.62D-01  7.04D-01  8.48D-01  9.15D-01  1.06D+00
                    CP:  1.04D+00  1.12D+00  1.38D+00  1.11D+00  9.77D-01
                    CP:  1.25D+00  1.04D+00  1.09D+00
 E= -744.934037395185     Delta-E=       -0.000000000007 Rises=F Damp=F
 DIIS: error= 3.89D-08 at cycle  14 NSaved=  14.
 NSaved=14 IEnMin=14 EnMin= -744.934037395185     IErMin=14 ErrMin= 3.89D-08
 ErrMax= 3.89D-08  0.00D+00 EMaxC= 1.00D-01 BMatC= 1.89D-12 BMatP= 5.07D-12
 IDIUse=1 WtCom= 1.00D+00 WtEn= 0.00D+00
 Coeff-Com: -0.731D-07 0.664D-07 0.313D-05 0.140D-04 0.539D-04 0.195D-03
 Coeff-Com:  0.293D-03 0.347D-03-0.349D-02-0.178D-01-0.776D-02-0.103D-01
 Coeff-Com:  0.402D+00 0.636D+00
 Coeff:     -0.731D-07 0.664D-07 0.313D-05 0.140D-04 0.539D-04 0.195D-03
 Coeff:      0.293D-03 0.347D-03-0.349D-02-0.178D-01-0.776D-02-0.103D-01
 Coeff:      0.402D+00 0.636D+00
 Gap=     0.134 Goal=   None    Shift=    0.000
 RMSDP=8.89D-08 MaxDP=9.78D-06 DE=-7.05D-12 OVMax= 1.12D-06

 Cycle  15  Pass 1  IDiag  1:
 RMSU=  2.33D-08    CP:  7.62D-01  7.04D-01  8.48D-01  9.15D-01  1.06D+00
                    CP:  1.04D+00  1.12D+00  1.38D+00  1.11D+00  9.72D-01
                    CP:  1.28D+00  1.07D+00  1.17D+00  1.19D+00
 E= -744.934037395184     Delta-E=        0.000000000001 Rises=F Damp=F
 DIIS: error= 1.69D-08 at cycle  15 NSaved=  15.
 NSaved=15 IEnMin=14 EnMin= -744.934037395185     IErMin=15 ErrMin= 1.69D-08
 ErrMax= 1.69D-08  0.00D+00 EMaxC= 1.00D-01 BMatC= 1.58D-13 BMatP= 1.89D-12
 IDIUse=1 WtCom= 1.00D+00 WtEn= 0.00D+00
 Coeff-Com:  0.160D-06-0.792D-06-0.301D-05-0.399D-05 0.383D-05 0.602D-04
 Coeff-Com:  0.387D-03 0.802D-03-0.140D-03-0.609D-02-0.164D-01-0.426D-01
 Coeff-Com:  0.867D-01 0.269D+00 0.708D+00
 Coeff:      0.160D-06-0.792D-06-0.301D-05-0.399D-05 0.383D-05 0.602D-04
 Coeff:      0.387D-03 0.802D-03-0.140D-03-0.609D-02-0.164D-01-0.426D-01
 Coeff:      0.867D-01 0.269D+00 0.708D+00
 Gap=     0.134 Goal=   None    Shift=    0.000
 RMSDP=3.02D-08 MaxDP=3.85D-06 DE= 1.14D-12 OVMax= 3.77D-07

 Cycle  16  Pass 1  IDiag  1:
 RMSU=  6.74D-09    CP:  7.62D-01  7.04D-01  8.48D-01  9.15D-01  1.06D+00
                    CP:  1.04D+00  1.12D+00  1.38D+00  1.11D+00  9.70D-01
                    CP:  1.29D+00  1.07D+00  1.20D+00  1.29D+00  1.08D+00
 E= -744.934037395198     Delta-E=       -0.000000000014 Rises=F Damp=F
 DIIS: error= 6.69D-09 at cycle  16 NSaved=  16.
 NSaved=16 IEnMin=16 EnMin= -744.934037395198     IErMin=16 ErrMin= 6.69D-09
 ErrMax= 6.69D-09  0.00D+00 EMaxC= 1.00D-01 BMatC= 2.89D-14 BMatP= 1.58D-13
 IDIUse=1 WtCom= 1.00D+00 WtEn= 0.00D+00
 Coeff-Com:  0.528D-07-0.326D-06-0.172D-05-0.327D-05-0.456D-05 0.408D-05
 Coeff-Com:  0.125D-03 0.333D-03 0.376D-03-0.678D-03-0.544D-02-0.206D-01
 Coeff-Com: -0.857D-02 0.418D-01 0.352D+00 0.640D+00
 Coeff:      0.528D-07-0.326D-06-0.172D-05-0.327D-05-0.456D-05 0.408D-05
 Coeff:      0.125D-03 0.333D-03 0.376D-03-0.678D-03-0.544D-02-0.206D-01
 Coeff:     -0.857D-02 0.418D-01 0.352D+00 0.640D+00
 Gap=     0.134 Goal=   None    Shift=    0.000
 RMSDP=9.95D-09 MaxDP=1.06D-06 DE=-1.43D-11 OVMax= 1.04D-07

 Cycle  17  Pass 1  IDiag  1:
 RMSU=  2.60D-09    CP:  7.62D-01  7.04D-01  8.48D-01  9.15D-01  1.06D+00
                    CP:  1.04D+00  1.12D+00  1.38D+00  1.11D+00  9.70D-01
                    CP:  1.29D+00  1.07D+00  1.21D+00  1.31D+00  1.13D+00
                    CP:  1.16D+00
 E= -744.934037395195     Delta-E=        0.000000000003 Rises=F Damp=F
 DIIS: error= 1.44D-09 at cycle  17 NSaved=  17.
 NSaved=17 IEnMin=16 EnMin= -744.934037395198     IErMin=17 ErrMin= 1.44D-09
 ErrMax= 1.44D-09  0.00D+00 EMaxC= 1.00D-01 BMatC= 2.68D-15 BMatP= 2.89D-14
 IDIUse=1 WtCom= 1.00D+00 WtEn= 0.00D+00
 Coeff-Com: -0.143D-09-0.375D-07-0.338D-06-0.772D-06-0.222D-05-0.523D-05
 Coeff-Com: -0.885D-06 0.406D-04 0.156D-03 0.392D-03 0.108D-03-0.363D-02
 Coeff-Com: -0.123D-01-0.193D-01 0.416D-01 0.259D+00 0.734D+00
 Coeff:     -0.143D-09-0.375D-07-0.338D-06-0.772D-06-0.222D-05-0.523D-05
 Coeff:     -0.885D-06 0.406D-04 0.156D-03 0.392D-03 0.108D-03-0.363D-02
 Coeff:     -0.123D-01-0.193D-01 0.416D-01 0.259D+00 0.734D+00
 Gap=     0.134 Goal=   None    Shift=    0.000
 RMSDP=2.98D-09 MaxDP=3.14D-07 DE= 3.41D-12 OVMax= 2.65D-08

 Error on total polarization charges =  0.01663
 SCF Done:  E(RM06) =  -744.934037395     A.U. after   17 cycles
            NFock= 17  Conv=0.30D-08     -V/T= 2.0038
 KE= 7.420996507631D+02 PE=-3.972915388222D+03 EE= 1.367831791136D+03
 Leave Link  502 at Tue Dec  3 11:00:48 2019, MaxMem=   104857600 cpu:            1018.5 elap:            1021.1
 (Enter /opt/software/gaussian/g16/l601.exe)
 Copying SCF densities to generalized density rwf, IOpCl= 0 IROHF=0.

 **********************************************************************

            Population analysis using the SCF Density.

 **********************************************************************

 Orbital symmetries:
       Occupied  (A) (A) (A) (A) (A) (A) (A) (A) (A) (A) (A) (A)
                 (A) (A) (A) (A) (A) (A) (A) (A) (A) (A) (A) (A)
                 (A) (A) (A) (A) (A) (A) (A) (A) (A) (A) (A) (A)
                 (A) (A) (A) (A) (A) (A) (A) (A) (A) (A) (A) (A)
                 (A) (A) (A) (A) (A) (A) (A) (A) (A) (A) (A)
       Virtual   (A) (A) (A) (A) (A) (A) (A) (A) (A) (A) (A) (A)
                 (A) (A) (A) (A) (A) (A) (A) (A) (A) (A) (A) (A)
                 (A) (A) (A) (A) (A) (A) (A) (A) (A) (A) (A) (A)
                 (A) (A) (A) (A) (A) (A) (A) (A) (A) (A) (A) (A)
                 (A) (A) (A) (A) (A) (A) (A) (A) (A) (A) (A) (A)
                 (A) (A) (A) (A) (A) (A) (A) (A) (A) (A) (A) (A)
                 (A) (A) (A) (A) (A) (A) (A) (A) (A) (A) (A) (A)
                 (A) (A) (A) (A) (A) (A) (A) (A) (A) (A) (A) (A)
                 (A) (A) (A) (A) (A) (A) (A) (A) (A) (A) (A) (A)
                 (A) (A) (A) (A) (A) (A) (A) (A) (A) (A) (A) (A)
                 (A) (A) (A) (A) (A) (A) (A) (A) (A) (A) (A) (A)
                 (A) (A) (A) (A) (A) (A) (A) (A) (A) (A) (A) (A)
                 (A) (A) (A) (A) (A) (A) (A) (A) (A) (A) (A) (A)
                 (A) (A) (A) (A) (A) (A) (A) (A) (A) (A) (A) (A)
                 (A) (A) (A) (A) (A) (A) (A) (A) (A) (A) (A) (A)
                 (A) (A) (A) (A) (A) (A) (A) (A) (A) (A) (A) (A)
                 (A) (A) (A) (A) (A) (A) (A) (A) (A) (A) (A) (A)
                 (A) (A) (A) (A) (A) (A) (A) (A) (A) (A) (A) (A)
                 (A) (A) (A) (A) (A) (A) (A) (A) (A) (A) (A) (A)
                 (A) (A) (A) (A) (A) (A) (A) (A) (A) (A) (A) (A)
                 (A) (A) (A) (A) (A) (A) (A) (A) (A) (A) (A) (A)
                 (A) (A) (A) (A) (A) (A) (A) (A) (A) (A) (A) (A)
                 (A) (A) (A) (A) (A) (A) (A) (A) (A) (A) (A) (A)
                 (A) (A) (A) (A) (A) (A) (A) (A) (A) (A) (A) (A)
                 (A) (A) (A) (A) (A) (A) (A) (A) (A) (A) (A) (A)
                 (A) (A) (A) (A) (A) (A) (A) (A) (A) (A) (A) (A)
                 (A) (A) (A) (A) (A) (A) (A) (A) (A) (A) (A) (A)
                 (A) (A) (A) (A) (A) (A) (A) (A) (A) (A) (A) (A)
                 (A) (A) (A) (A) (A) (A) (A) (A) (A) (A) (A) (A)
                 (A) (A) (A) (A) (A) (A) (A) (A) (A) (A) (A) (A)
                 (A) (A) (A) (A) (A) (A) (A) (A) (A) (A) (A) (A)
                 (A) (A) (A) (A) (A) (A) (A)
 The electronic state is 1-A.
 Alpha  occ. eigenvalues --  -19.25083 -19.24765 -14.40153 -10.31328 -10.31012
 Alpha  occ. eigenvalues --  -10.30014 -10.29470 -10.27212 -10.26783 -10.26740
 Alpha  occ. eigenvalues --  -10.25339 -10.25304 -10.25058 -10.25033 -10.24959
 Alpha  occ. eigenvalues --  -10.24790 -10.23739  -1.09596  -1.09387  -0.98288
 Alpha  occ. eigenvalues --   -0.88716  -0.86223  -0.82418  -0.77315  -0.76872
 Alpha  occ. eigenvalues --   -0.75765  -0.73300  -0.65727  -0.63895  -0.63238
 Alpha  occ. eigenvalues --   -0.61151  -0.58680  -0.57748  -0.55788  -0.53908
 Alpha  occ. eigenvalues --   -0.51542  -0.50381  -0.48668  -0.47483  -0.47152
 Alpha  occ. eigenvalues --   -0.46198  -0.44481  -0.44269  -0.43242  -0.42457
 Alpha  occ. eigenvalues --   -0.41967  -0.40199  -0.39809  -0.38619  -0.38284
 Alpha  occ. eigenvalues --   -0.36841  -0.36523  -0.35361  -0.32590  -0.31641
 Alpha  occ. eigenvalues --   -0.29497  -0.27775  -0.26428  -0.21400
 Alpha virt. eigenvalues --   -0.08046  -0.03233  -0.02527  -0.02288  -0.02089
 Alpha virt. eigenvalues --   -0.01986  -0.01344  -0.00928  -0.00670  -0.00447
 Alpha virt. eigenvalues --    0.00205   0.00569   0.01165   0.01544   0.01999
 Alpha virt. eigenvalues --    0.02896   0.03180   0.03710   0.04069   0.04185
 Alpha virt. eigenvalues --    0.05233   0.05782   0.06017   0.06271   0.06716
 Alpha virt. eigenvalues --    0.07536   0.08129   0.08609   0.09015   0.09478
 Alpha virt. eigenvalues --    0.09855   0.10222   0.10696   0.10888   0.11910
 Alpha virt. eigenvalues --    0.12072   0.12146   0.12509   0.12720   0.13002
 Alpha virt. eigenvalues --    0.13387   0.13926   0.14559   0.14691   0.15315
 Alpha virt. eigenvalues --    0.15399   0.15990   0.16294   0.16431   0.17042
 Alpha virt. eigenvalues --    0.17278   0.17475   0.17707   0.18049   0.18389
 Alpha virt. eigenvalues --    0.18990   0.19100   0.19704   0.19958   0.20516
 Alpha virt. eigenvalues --    0.20717   0.21057   0.21680   0.21798   0.22124
 Alpha virt. eigenvalues --    0.22641   0.23366   0.23400   0.23740   0.23908
 Alpha virt. eigenvalues --    0.24885   0.25122   0.25605   0.25972   0.26224
 Alpha virt. eigenvalues --    0.27365   0.27659   0.27984   0.28725   0.29019
 Alpha virt. eigenvalues --    0.29715   0.30060   0.31138   0.31204   0.31783
 Alpha virt. eigenvalues --    0.31948   0.32268   0.32833   0.33166   0.34690
 Alpha virt. eigenvalues --    0.35097   0.36199   0.37364   0.37999   0.39152
 Alpha virt. eigenvalues --    0.40255   0.42150   0.43017   0.44364   0.46706
 Alpha virt. eigenvalues --    0.48795   0.49422   0.49836   0.50217   0.50712
 Alpha virt. eigenvalues --    0.51287   0.52126   0.52450   0.53100   0.54434
 Alpha virt. eigenvalues --    0.54694   0.55628   0.56166   0.56616   0.57129
 Alpha virt. eigenvalues --    0.57252   0.57927   0.58640   0.59197   0.59523
 Alpha virt. eigenvalues --    0.60446   0.61743   0.61912   0.62901   0.63297
 Alpha virt. eigenvalues --    0.63895   0.64836   0.65282   0.65694   0.66867
 Alpha virt. eigenvalues --    0.67232   0.67426   0.68012   0.68880   0.69548
 Alpha virt. eigenvalues --    0.70064   0.70727   0.71770   0.72035   0.73302
 Alpha virt. eigenvalues --    0.73683   0.74724   0.76495   0.76894   0.77809
 Alpha virt. eigenvalues --    0.79153   0.79667   0.80241   0.80518   0.82225
 Alpha virt. eigenvalues --    0.82993   0.84811   0.85473   0.86138   0.87634
 Alpha virt. eigenvalues --    0.87839   0.88454   0.89658   0.90530   0.91869
 Alpha virt. eigenvalues --    0.92678   0.93380   0.94784   0.95029   0.96499
 Alpha virt. eigenvalues --    0.97969   0.98190   1.00014   1.01784   1.03140
 Alpha virt. eigenvalues --    1.03961   1.05848   1.06428   1.07060   1.07858
 Alpha virt. eigenvalues --    1.10921   1.11342   1.12380   1.13091   1.13818
 Alpha virt. eigenvalues --    1.15756   1.16898   1.17331   1.18706   1.21940
 Alpha virt. eigenvalues --    1.23140   1.25033   1.26973   1.28597   1.30842
 Alpha virt. eigenvalues --    1.31321   1.35328   1.37682   1.40460   1.41488
 Alpha virt. eigenvalues --    1.42921   1.45721   1.46685   1.47101   1.49419
 Alpha virt. eigenvalues --    1.49491   1.50039   1.52193   1.52478   1.53137
 Alpha virt. eigenvalues --    1.53864   1.54383   1.55113   1.56939   1.57354
 Alpha virt. eigenvalues --    1.59308   1.61132   1.62319   1.62791   1.63339
 Alpha virt. eigenvalues --    1.64457   1.65720   1.66159   1.67837   1.68273
 Alpha virt. eigenvalues --    1.69968   1.70423   1.71827   1.73032   1.75546
 Alpha virt. eigenvalues --    1.76186   1.77404   1.77899   1.78676   1.79583
 Alpha virt. eigenvalues --    1.81389   1.82967   1.85053   1.86768   1.89383
 Alpha virt. eigenvalues --    1.90004   1.90394   1.90894   1.91576   1.92667
 Alpha virt. eigenvalues --    1.93267   1.94201   1.95370   1.96192   1.97808
 Alpha virt. eigenvalues --    1.98631   2.00944   2.01302   2.01824   2.02386
 Alpha virt. eigenvalues --    2.03028   2.05615   2.06637   2.07655   2.09577
 Alpha virt. eigenvalues --    2.10820   2.13573   2.14859   2.16084   2.18055
 Alpha virt. eigenvalues --    2.22319   2.24726   2.25843   2.27866   2.29788
 Alpha virt. eigenvalues --    2.29931   2.33093   2.34315   2.35514   2.37636
 Alpha virt. eigenvalues --    2.38811   2.39868   2.43069   2.47243   2.51817
 Alpha virt. eigenvalues --    2.54201   2.56853   2.59216   2.59953   2.61506
 Alpha virt. eigenvalues --    2.62422   2.64553   2.65225   2.66158   2.66863
 Alpha virt. eigenvalues --    2.67741   2.68058   2.68696   2.69759   2.70332
 Alpha virt. eigenvalues --    2.70803   2.72012   2.73044   2.75427   2.76885
 Alpha virt. eigenvalues --    2.77478   2.78403   2.80226   2.81016   2.81942
 Alpha virt. eigenvalues --    2.84583   2.85645   2.86103   2.87327   2.90373
 Alpha virt. eigenvalues --    2.92210   2.93134   2.94575   2.95982   2.98936
 Alpha virt. eigenvalues --    3.01954   3.06865   3.07993   3.08300   3.10460
 Alpha virt. eigenvalues --    3.11226   3.11830   3.15157   3.16663   3.18783
 Alpha virt. eigenvalues --    3.19326   3.25186   3.29211   3.30116   3.31432
 Alpha virt. eigenvalues --    3.32661   3.33804   3.37583   3.41500   3.43152
 Alpha virt. eigenvalues --    3.45264   3.46993   3.50082   3.55964   3.60264
 Alpha virt. eigenvalues --    3.63314   3.64109   3.71481   3.82301   3.84646
 Alpha virt. eigenvalues --    3.86853   3.89661   3.92846   3.96445   3.99609
 Alpha virt. eigenvalues --    4.07234   4.08619   4.08887   4.10368   4.14696
 Alpha virt. eigenvalues --    4.20336   4.44822   4.52345   4.63229   4.81187
 Alpha virt. eigenvalues --    4.94661   5.04443   5.07190   5.43777   5.48088
 Alpha virt. eigenvalues --    5.68671   5.75110  23.53218  23.62624  23.71894
 Alpha virt. eigenvalues --   23.77358  23.83143  23.88162  23.92629  23.93102
 Alpha virt. eigenvalues --   24.03876  24.05541  24.13965  24.15517  24.17155
 Alpha virt. eigenvalues --   24.26139  35.58262  49.87051  49.89820
          Condensed to atoms (all electrons):
               1          2          3          4          5          6
     1  C   11.519668  -1.345700   1.076093  -2.097207   2.584838  -5.327808
     2  C   -1.345700   9.906893  -2.919244  -0.203954  -3.088671   2.976589
     3  C    1.076093  -2.919244  10.962162  -3.354069   1.744694  -1.994511
     4  C   -2.097207  -0.203954  -3.354069  21.947288  -1.469312  -0.918538
     5  C    2.584838  -3.088671   1.744694  -1.469312  26.103910 -14.772084
     6  C   -5.327808   2.976589  -1.994511  -0.918538 -14.772084  22.265146
     7  O    0.029090   0.011629   0.005855  -0.090382  -0.549543   0.483054
     8  H   -0.204643   0.000485  -0.005883   0.001871   0.073020   0.141402
     9  O   -0.035342  -0.261359   0.283252   0.070049  -0.035968   0.062127
    10  N    0.182098  -0.060173   0.230432  -0.075169   0.343290  -0.352921
    11  H    0.041181  -0.018364   0.008546   0.384221   0.129338  -0.132872
    12  C   -0.241095   0.336188  -0.125769  -3.661933  -2.883795   1.647967
    13  C   -1.161185   0.680578  -0.199335  -2.306080  -3.036471   3.452544
    14  H   -0.000382   0.001461  -0.006420   0.034503   0.006255   0.019051
    15  C    0.516190  -0.243393   0.465135  -1.582151  -0.429548  -0.284950
    16  H    0.339227   0.071314  -0.039400   0.041831  -0.006222  -0.040518
    17  C    0.054256  -0.070086   0.119956   1.384504   1.013495  -1.147180
    18  C    0.001252   0.010926  -0.014192  -0.084826  -0.617434   0.363911
    19  H   -0.000358   0.000036   0.000064  -0.004385   0.011766  -0.002378
    20  C   -0.175672   0.077120  -0.178739  -1.177014  -0.461855   1.053075
    21  C    0.042938  -0.030158   0.014005  -0.183950  -0.270266   0.044908
    22  H   -0.019802   0.002024  -0.000010   0.002064   0.003029   0.033922
    23  C   -0.006103  -0.001956   0.003508   0.021078   0.123790  -0.065551
    24  H   -0.000080   0.000004  -0.000011  -0.000011   0.002422  -0.000621
    25  H   -0.000057   0.000003  -0.000006   0.000044   0.000409  -0.000198
    26  H   -0.000149  -0.000039   0.000006  -0.000168   0.003053  -0.001642
    27  H    0.003333   0.119674   0.021500  -0.101587  -0.007053  -0.013827
    28  H    0.062260   0.312798   0.012386  -0.010402   0.023434  -0.027636
               7          8          9         10         11         12
     1  C    0.029090  -0.204643  -0.035342   0.182098   0.041181  -0.241095
     2  C    0.011629   0.000485  -0.261359  -0.060173  -0.018364   0.336188
     3  C    0.005855  -0.005883   0.283252   0.230432   0.008546  -0.125769
     4  C   -0.090382   0.001871   0.070049  -0.075169   0.384221  -3.661933
     5  C   -0.549543   0.073020  -0.035968   0.343290   0.129338  -2.883795
     6  C    0.483054   0.141402   0.062127  -0.352921  -0.132872   1.647967
     7  O    7.966843   0.254576   0.000390  -0.000875   0.000839   0.041278
     8  H    0.254576   0.407837  -0.000023  -0.000268  -0.000054  -0.001640
     9  O    0.000390  -0.000023   7.958214  -0.036973  -0.001953   0.026897
    10  N   -0.000875  -0.000268  -0.036973   6.819334  -0.024954   0.062957
    11  H    0.000839  -0.000054  -0.001953  -0.024954   0.396709  -0.019419
    12  C    0.041278  -0.001640   0.026897   0.062957  -0.019419  10.753698
    13  C    0.129095   0.009820   0.003190   0.040191  -0.049600  -0.717793
    14  H   -0.000033   0.000000   0.000217  -0.052867  -0.000406   0.385407
    15  C   -0.046163  -0.015715  -0.002283   0.005943  -0.004379   0.966788
    16  H   -0.006459   0.001610  -0.000207  -0.000483  -0.000100   0.000911
    17  C   -0.077310  -0.001964  -0.004198   0.012738  -0.019397  -1.168198
    18  C    0.016747   0.000243  -0.000249  -0.002756  -0.001633   0.241919
    19  H   -0.000014  -0.000002   0.000001  -0.000929   0.000020   0.029818
    20  C    0.062962   0.026160   0.005291  -0.047220   0.015178   0.721550
    21  C    0.034364   0.000423   0.000212   0.002922   0.000738   0.114640
    22  H   -0.005899   0.000519  -0.000006   0.000137  -0.000006  -0.002057
    23  C   -0.005064   0.001073   0.000021  -0.000742   0.000023  -0.052669
    24  H    0.000002   0.000000   0.000000  -0.000015   0.000000  -0.000880
    25  H    0.000003  -0.000000   0.000000   0.000002  -0.000000  -0.000015
    26  H   -0.000094  -0.000005  -0.000000  -0.000001  -0.000000   0.000418
    27  H    0.000004   0.000000   0.263206   0.040126  -0.000269  -0.003724
    28  H   -0.000426   0.000034  -0.007554  -0.000824  -0.000217  -0.000268
              13         14         15         16         17         18
     1  C   -1.161185  -0.000382   0.516190   0.339227   0.054256   0.001252
     2  C    0.680578   0.001461  -0.243393   0.071314  -0.070086   0.010926
     3  C   -0.199335  -0.006420   0.465135  -0.039400   0.119956  -0.014192
     4  C   -2.306080   0.034503  -1.582151   0.041831   1.384504  -0.084826
     5  C   -3.036471   0.006255  -0.429548  -0.006222   1.013495  -0.617434
     6  C    3.452544   0.019051  -0.284950  -0.040518  -1.147180   0.363911
     7  O    0.129095  -0.000033  -0.046163  -0.006459  -0.077310   0.016747
     8  H    0.009820   0.000000  -0.015715   0.001610  -0.001964   0.000243
     9  O    0.003190   0.000217  -0.002283  -0.000207  -0.004198  -0.000249
    10  N    0.040191  -0.052867   0.005943  -0.000483   0.012738  -0.002756
    11  H   -0.049600  -0.000406  -0.004379  -0.000100  -0.019397  -0.001633
    12  C   -0.717793   0.385407   0.966788   0.000911  -1.168198   0.241919
    13  C   10.803160  -0.069508  -1.733146  -0.005085  -0.577005   0.558913
    14  H   -0.069508   0.475822  -0.000531  -0.000001   0.042859  -0.004420
    15  C   -1.733146  -0.000531  13.825923  -0.001400  -2.517496  -0.139219
    16  H   -0.005085  -0.000001  -0.001400   0.469826  -0.000306  -0.000048
    17  C   -0.577005   0.042859  -2.517496  -0.000306  19.752944  -2.507101
    18  C    0.558913  -0.004420  -0.139219  -0.000048  -2.507101   8.113195
    19  H    0.058763  -0.000577   0.044506  -0.000000   0.220979   0.033916
    20  C   -0.656236  -0.008273  -2.232335   0.000322  -7.932525  -0.555173
    21  C    0.772638  -0.003533  -0.336056   0.000506  -1.140931   0.597417
    22  H    0.030094   0.000030   0.105876  -0.000059   0.028099  -0.002125
    23  C   -0.423858   0.003050  -1.274397   0.000003   0.844838  -0.072319
    24  H   -0.008593   0.000014   0.021116   0.000000  -0.033964   0.345309
    25  H    0.007487   0.000000   0.040433   0.000000  -0.070431   0.070193
    26  H   -0.003099   0.000000   0.026570  -0.000000  -0.008954  -0.013078
    27  H   -0.013748  -0.000199   0.000609   0.000008  -0.001044  -0.000024
    28  H   -0.006125  -0.000000   0.001528  -0.004050   0.000080   0.000000
              19         20         21         22         23         24
     1  C   -0.000358  -0.175672   0.042938  -0.019802  -0.006103  -0.000080
     2  C    0.000036   0.077120  -0.030158   0.002024  -0.001956   0.000004
     3  C    0.000064  -0.178739   0.014005  -0.000010   0.003508  -0.000011
     4  C   -0.004385  -1.177014  -0.183950   0.002064   0.021078  -0.000011
     5  C    0.011766  -0.461855  -0.270266   0.003029   0.123790   0.002422
     6  C   -0.002378   1.053075   0.044908   0.033922  -0.065551  -0.000621
     7  O   -0.000014   0.062962   0.034364  -0.005899  -0.005064   0.000002
     8  H   -0.000002   0.026160   0.000423   0.000519   0.001073   0.000000
     9  O    0.000001   0.005291   0.000212  -0.000006   0.000021   0.000000
    10  N   -0.000929  -0.047220   0.002922   0.000137  -0.000742  -0.000015
    11  H    0.000020   0.015178   0.000738  -0.000006   0.000023   0.000000
    12  C    0.029818   0.721550   0.114640  -0.002057  -0.052669  -0.000880
    13  C    0.058763  -0.656236   0.772638   0.030094  -0.423858  -0.008593
    14  H   -0.000577  -0.008273  -0.003533   0.000030   0.003050   0.000014
    15  C    0.044506  -2.232335  -0.336056   0.105876  -1.274397   0.021116
    16  H   -0.000000   0.000322   0.000506  -0.000059   0.000003   0.000000
    17  C    0.220979  -7.932525  -1.140931   0.028099   0.844838  -0.033964
    18  C    0.033916  -0.555173   0.597417  -0.002125  -0.072319   0.345309
    19  H    0.463804  -0.021722   0.004860  -0.000150  -0.024381  -0.004559
    20  C   -0.021722  18.502083  -1.490762   0.229412   0.929096   0.007780
    21  C    0.004860  -1.490762   8.175108  -0.039773  -0.310039  -0.024181
    22  H   -0.000150   0.229412  -0.039773   0.465091  -0.017747   0.000068
    23  C   -0.024381   0.929096  -0.310039  -0.017747   6.185428   0.050225
    24  H   -0.004559   0.007780  -0.024181   0.000068   0.050225   0.463819
    25  H   -0.000167  -0.055074   0.071293  -0.000188   0.294032  -0.005046
    26  H    0.000063  -0.005235   0.335915  -0.004565   0.025394  -0.000166
    27  H   -0.000001   0.000844   0.000006   0.000001  -0.000001  -0.000000
    28  H    0.000000  -0.000837  -0.000022   0.000004  -0.000001   0.000000
              25         26         27         28
     1  C   -0.000057  -0.000149   0.003333   0.062260
     2  C    0.000003  -0.000039   0.119674   0.312798
     3  C   -0.000006   0.000006   0.021500   0.012386
     4  C    0.000044  -0.000168  -0.101587  -0.010402
     5  C    0.000409   0.003053  -0.007053   0.023434
     6  C   -0.000198  -0.001642  -0.013827  -0.027636
     7  O    0.000003  -0.000094   0.000004  -0.000426
     8  H   -0.000000  -0.000005   0.000000   0.000034
     9  O    0.000000  -0.000000   0.263206  -0.007554
    10  N    0.000002  -0.000001   0.040126  -0.000824
    11  H   -0.000000  -0.000000  -0.000269  -0.000217
    12  C   -0.000015   0.000418  -0.003724  -0.000268
    13  C    0.007487  -0.003099  -0.013748  -0.006125
    14  H    0.000000   0.000000  -0.000199  -0.000000
    15  C    0.040433   0.026570   0.000609   0.001528
    16  H    0.000000  -0.000000   0.000008  -0.004050
    17  C   -0.070431  -0.008954  -0.001044   0.000080
    18  C    0.070193  -0.013078  -0.000024   0.000000
    19  H   -0.000167   0.000063  -0.000001   0.000000
    20  C   -0.055074  -0.005235   0.000844  -0.000837
    21  C    0.071293   0.335915   0.000006  -0.000022
    22  H   -0.000188  -0.004565   0.000001   0.000004
    23  C    0.294032   0.025394  -0.000001  -0.000001
    24  H   -0.005046  -0.000166  -0.000000   0.000000
    25  H    0.465785  -0.005050  -0.000000  -0.000000
    26  H   -0.005050   0.463981   0.000000   0.000000
    27  H   -0.000000   0.000000   0.390677   0.000262
    28  H   -0.000000   0.000000   0.000262   0.468238
 Mulliken charges:
               1
     1  C    0.163157
     2  C   -0.264626
     3  C   -0.110007
     4  C   -0.566313
     5  C    1.461481
     6  C   -1.460463
     7  O   -0.254470
     8  H    0.311124
     9  O   -0.286951
    10  N   -0.083000
    11  H    0.296830
    12  C   -0.451179
    13  C    0.420395
    14  H    0.178482
    15  C    0.822545
    16  H    0.178780
    17  C   -0.196658
    18  C   -0.339345
    19  H    0.191029
    20  C   -0.632201
    21  C   -0.383223
    22  H    0.192018
    23  C   -0.226732
    24  H    0.187367
    25  H    0.186549
    26  H    0.186846
    27  H    0.301228
    28  H    0.177337
 Sum of Mulliken charges =  -0.00000
 Mulliken charges with hydrogens summed into heavy atoms:
               1
     1  C    0.341937
     2  C   -0.087289
     3  C   -0.110007
     4  C   -0.269484
     5  C    1.461481
     6  C   -1.460463
     7  O    0.056654
     9  O    0.014277
    10  N   -0.083000
    12  C   -0.272698
    13  C    0.420395
    15  C    0.822545
    17  C   -0.005629
    18  C   -0.151978
    20  C   -0.440183
    21  C   -0.196377
    23  C   -0.040182
 Electronic spatial extent (au):  <R**2>=           4124.2345
 Charge=             -0.0000 electrons
 Dipole moment (field-independent basis, Debye):
    X=             -2.7479    Y=              2.5205    Z=             -0.7701  Tot=              3.8075
 Quadrupole moment (field-independent basis, Debye-Ang):
   XX=           -100.4532   YY=            -86.0831   ZZ=           -100.1165
   XY=              8.6602   XZ=             -5.0770   YZ=              3.9089
 Traceless Quadrupole moment (field-independent basis, Debye-Ang):
   XX=             -4.9023   YY=              9.4679   ZZ=             -4.5656
   XY=              8.6602   XZ=             -5.0770   YZ=              3.9089
 Octapole moment (field-independent basis, Debye-Ang**2):
  XXX=            -95.1529  YYY=             58.0819  ZZZ=             -4.2428  XYY=             10.2448
  XXY=             14.6857  XXZ=            -11.1255  XZZ=              4.3374  YZZ=              1.8217
  YYZ=             -3.1476  XYZ=            -11.3552
 Hexadecapole moment (field-independent basis, Debye-Ang**3):
 XXXX=          -4090.1905 YYYY=           -977.8367 ZZZZ=           -355.7186 XXXY=             42.5208
 XXXZ=            -49.4413 YYYX=             51.7399 YYYZ=            -52.6432 ZZZX=             -1.8530
 ZZZY=              3.2800 XXYY=           -829.8498 XXZZ=           -765.0353 YYZZ=           -237.2924
 XXYZ=             74.8870 YYXZ=             14.8112 ZZXY=            -12.6818
 N-N= 1.118049908928D+03 E-N=-3.972915388213D+03  KE= 7.420996507631D+02
 No NMR shielding tensors so no spin-rotation constants.
 Leave Link  601 at Tue Dec  3 11:00:49 2019, MaxMem=   104857600 cpu:               0.3 elap:               0.3
 (Enter /opt/software/gaussian/g16/l701.exe)
 ... and contract with generalized density number  0.
 Compute integral first derivatives.
 D1PCM: PCM CHGder 1st derivatives, ID1Alg=3 FixD1E=F DoIter=F DoCFld=F I1PDM=0.
 GePol: Maximum number of non-zero 1st derivatives   =     199
 Leave Link  701 at Tue Dec  3 11:00:59 2019, MaxMem=   104857600 cpu:              10.5 elap:              10.5
 (Enter /opt/software/gaussian/g16/l702.exe)
 L702 exits ... SP integral derivatives will be done elsewhere.
 Leave Link  702 at Tue Dec  3 11:01:00 2019, MaxMem=   104857600 cpu:               0.0 elap:               0.0
 (Enter /opt/software/gaussian/g16/l703.exe)
 Integral derivatives from FoFJK, PRISM(SPDF).
 Compute integral first derivatives, UseDBF=F ICtDFT=           0.
 Calling FoFJK, ICntrl=      2127 FMM=F ISym2X=0 I1Cent= 0 IOpClX= 0 NMat=1 NMatS=1 NMatT=0.
 FoFJK:  IHMeth= 1 ICntrl=    2127 DoSepK=F KAlg= 0 I1Cent=           0 FoldK=F
 IRaf=         0 NMat=       1 IRICut=       1 DoRegI=T DoRafI=F ISym2E= 0 IDoP0=0 IntGTp=1.
 FoFCou: FMM=F IPFlag=           0 FMFlag=      100000 FMFlg1=         800
         NFxFlg=           0 DoJE=F BraDBF=F KetDBF=F FulRan=T
         wScrn=  0.000000 ICntrl=      2127 IOpCl=  0 I1Cent=           0 NGrid=           0
         NMat0=    1 NMatS0=      1 NMatT0=    0 NMatD0=    1 NMtDS0=    0 NMtDT0=    0
 Symmetry not used in FoFCou.
[...]
 3079,0.00012594,-0.00060752,-0.00075882,0.01267717,0.04523769,-0.07953
 548,0.12918878,-0.21852791,0.27804886,0.00000135,-0.00009859,-0.000210
 25,-0.00007115,0.00011668,-0.00000176,0.00000750,-0.00017673,0.0000090
 8,0.00012011,-0.00004612,-0.00004543,0.00005025,-0.00000304,0.00015790
 ,-0.00049790,-0.00054880,0.00042697,-0.00262588,0.00029863,0.00175169,
 -0.00031499,0.00004703,0.00032627,0.00003578,0.00022229,0.00004127,-0.
 00006779,0.00001378,-0.00005269,0.00000952,0.00001936,-0.00001193,0.00
 017736,0.00020851,0.00009259,0.00009137,-0.00057952,0.00103048,-0.0000
 0842,-0.00000513,-0.00000036,-0.00118728,-0.00133706,-0.00070847,0.000
 00107,-0.00002684,0.00003957,0.00192288,-0.00001580,-0.00114190,0.0002
 9027,-0.00022683,0.00046756,-0.00005542,-0.00006564,0.00000161,-0.2791
 0771,0.05041065,-0.10339806,-0.01500714,0.00675004,-0.00904985,0.29722
 320,0.00006904,-0.00006927,0.00003675,-0.00004596,0.00004826,0.0000167
 1,-0.00002708,-0.00011629,-0.00006210,-0.00003062,-0.00005610,-0.00004
 442,-0.00016163,0.00022355,-0.00002079,-0.00080636,-0.00036864,0.00038
 891,0.00019977,0.00011570,-0.00005620,0.00010854,0.00008951,-0.0001220
 5,0.00004102,0.00016863,0.00004702,0.00018163,0.00022783,0.00007594,-0
 .00002025,0.00001910,0.00000774,-0.00013750,-0.00035383,-0.00012184,0.
 00167188,0.00100283,-0.00165086,-0.00000505,0.00003651,0.00003258,0.02
 364359,-0.00202924,0.00993067,0.00001996,0.00000209,-0.00001686,-0.000
 45541,-0.00320783,0.00450481,-0.00039028,-0.00110089,-0.00011026,0.001
 22088,-0.00016935,0.00054813,0.04986909,-0.06508699,0.02961638,-0.0195
 1573,0.00795164,-0.00794198,-0.05189961,0.06357812,-0.00003985,-0.0000
 9829,0.00000135,0.00006238,-0.00014617,0.00000395,-0.00006846,0.000247
 59,-0.00000889,0.00012286,0.00000264,0.00011590,0.00020356,0.00024065,
 -0.00034439,0.00098164,0.00226067,0.00012064,0.00001646,-0.00098635,-0
 .00006461,-0.00000964,-0.00028187,-0.00007562,-0.00002463,-0.00028225,
 -0.00001755,0.00005475,-0.00018366,-0.00004606,-0.00002539,0.00001147,
 0.00001928,-0.00017667,-0.00006405,0.00019906,0.00131786,-0.00162844,-
 0.00250850,0.00001218,-0.00005259,-0.00002983,-0.01402591,0.00145432,-
 0.00148707,0.00002881,0.00002561,-0.00005485,-0.00085494,0.00480284,0.
 00397868,0.00056631,-0.00021353,-0.00081513,-0.00069873,0.00014157,-0.
 00008361,-0.10073957,0.02913750,-0.08185713,0.00307792,0.00055224,0.00
 462295,0.10977576,-0.03535465,0.07623890,0.00032649,0.00064990,0.00012
 655,0.00012962,-0.00048287,-0.00003821,0.00007284,0.00045599,0.0000119
 5,-0.00009396,-0.00006198,-0.00000775,0.00156915,-0.00099959,0.0004776
 0,-0.00040890,0.00029923,-0.00023926,-0.00032422,0.00023241,0.00023980
 ,-0.00008775,-0.00013344,0.00002178,-0.00011900,-0.00050333,-0.0002258
 9,-0.00059767,-0.00064702,0.00020308,0.00002154,-0.00008306,0.00000852
 ,0.00012701,0.00102651,-0.00042478,-0.00224147,-0.00050360,0.00058463,
 -0.00001545,-0.00017604,0.00008071,-0.02519219,0.03054754,-0.02031816,
 -0.00002575,0.00003954,0.00001402,0.04741009,-0.00812002,0.01639375,-0
 .12558730,-0.00669566,-0.01619808,-0.00231361,-0.00447345,-0.00108978,
 -0.05041491,-0.04756163,0.00385712,-0.29471100,0.06245691,-0.10131674,
 -0.00072097,-0.00393955,-0.00084947,0.66116637,0.00032471,0.00073123,0
 .00027494,0.00026984,-0.00050946,-0.00023097,-0.00005187,0.00073873,-0
 .00004444,-0.00020321,-0.00009907,0.00044513,0.00136069,-0.00035242,-0
 .00012101,-0.00104241,-0.00009190,-0.00046188,0.00025228,0.00010698,0.
 00019341,0.00004651,-0.00000121,-0.00001685,-0.00005029,-0.00059877,-0
 .00017871,-0.00004998,-0.00022386,0.00030906,0.00011209,-0.00015866,0.
 00001993,-0.00072850,0.00019732,-0.00033544,-0.00094406,-0.00101396,-0
 .00056862,0.00014063,0.00022900,-0.00003610,0.03062792,-0.02772829,0.0
 1945487,-0.00004990,-0.00000701,0.00013479,-0.05314060,-0.04238280,0.0
 0763847,0.05310235,-0.27990272,0.11879226,-0.00383632,0.00036692,0.002
 09523,-0.00295895,0.04772019,-0.02017323,0.00259375,-0.12286344,0.0296
 3567,-0.00419364,-0.00106656,0.00265484,0.09389056,0.60501259,-0.00007
 532,-0.00016539,-0.00012231,-0.00007849,0.00008214,0.00009118,0.000000
 99,-0.00020802,0.00003544,0.00018767,0.00002707,-0.00022721,-0.0001323
 9,-0.00007334,0.00023259,0.00042165,0.00037511,0.00022161,-0.00054451,
 -0.00008066,0.00017341,-0.00008005,-0.00008410,0.00001827,-0.00000511,
 0.00012277,0.00002038,-0.00016950,-0.00019193,-0.00002761,-0.00005250,
 0.00003368,-0.00000193,0.00018877,0.00033961,0.00008368,0.00011352,-0.
 00021719,-0.00086591,-0.00001511,-0.00019737,0.00006014,-0.02030437,0.
 01967001,-0.02199997,0.00001896,0.00001516,-0.00006742,0.03785269,0.02
 091699,0.00884012,-0.04462199,0.09993796,-0.12302263,-0.00120947,0.001
 95067,0.00600819,-0.01666180,-0.03429376,0.01783802,-0.07249526,0.0482
 9660,-0.10764790,-0.00032878,0.00281501,0.00596278,0.11866874,-0.19413
 524,0.26010160,0.00003184,0.00022069,0.00007149,0.00005699,-0.00014144
 ,-0.00004466,0.00002906,0.00019162,-0.00000087,-0.00014864,0.00001009,
 0.00019063,0.00010341,-0.00044913,-0.00006826,-0.00011721,-0.00003234,
 -0.00007647,-0.00004496,0.00006076,0.00004626,-0.00001148,-0.00002338,
 -0.00000204,-0.00004855,-0.00019239,-0.00006257,-0.00009000,-0.0001558
 8,-0.00000211,0.00000477,-0.00008120,0.00000821,-0.00004810,0.00014181
 ,0.00004585,-0.00068406,0.00082236,-0.00043909,0.00002535,0.00000237,0
 .00000492,-0.00054229,-0.00430509,-0.00061146,-0.00001228,0.00000857,0
 .00001144,-0.01576744,0.00725318,-0.00947445,-0.27868763,0.05038336,-0
 .09901669,0.00062925,0.00067806,0.00117292,0.00019893,-0.00035440,0.00
 058176,0.00227075,0.00004702,-0.00166124,-0.00013938,0.00016620,0.0002
 0266,-0.00080976,-0.00158309,-0.00063997,0.29383767,0.00001331,0.00005
 254,0.00002249,0.00000773,-0.00003238,-0.00001258,0.00001181,0.0000367
 1,0.00000121,-0.00006633,0.00001574,0.00008317,-0.00004057,-0.00030574
 ,-0.00004668,-0.00002987,-0.00001176,-0.00001172,0.00001074,0.00003596
 ,-0.00001750,-0.00000285,-0.00000469,0.00000107,-0.00001832,-0.0000415
 5,-0.00000792,-0.00003419,-0.00004922,-0.00000929,-0.00000275,-0.00002
 915,-0.00000024,0.00004178,0.00005183,0.00001416,-0.00082515,0.0005191
 1,-0.00027100,-0.00000841,-0.00002220,-0.00000978,-0.00378873,-0.00097
 056,0.00264657,-0.00000211,0.00000381,-0.00000271,-0.01929730,0.007586
 10,-0.00798924,0.05065507,-0.06510624,0.02927164,0.00116292,0.00004255
 ,-0.00167684,-0.00034857,-0.00118319,-0.00007199,-0.00053599,-0.003063
 07,0.00474927,0.00015781,-0.00006505,-0.00041329,0.02497372,-0.0010760
 3,0.00993030,-0.05329479,0.06344708,0.00003958,0.00005265,0.00002418,0
 .00001711,-0.00004225,-0.00001854,0.00000070,0.00005148,-0.00000422,-0
 .00002027,-0.00000323,0.00001077,0.00013948,-0.00009560,-0.00009626,-0
 .00008052,0.00004117,-0.00001324,0.00000435,0.00002052,-0.00000897,-0.
 00000171,-0.00000901,-0.00000140,-0.00001074,-0.00005127,-0.00001440,-
 0.00003177,-0.00002763,0.00001633,0.00001030,0.00000185,-0.00000069,0.
 00001265,-0.00002935,-0.00005181,-0.00007743,-0.00001609,0.00026556,-0
 .00002577,0.00000034,-0.00000407,-0.00049290,0.00283043,0.00593550,-0.
 00000320,0.00000095,0.00000985,0.00302885,0.00043788,0.00419544,-0.099
 15224,0.02940130,-0.08146540,0.00095586,-0.00188315,-0.00307158,0.0006
 1400,-0.00016063,-0.00084145,-0.00147246,0.00485623,0.00453698,0.00016
 511,-0.00041638,-0.00081192,-0.01303017,0.00142615,-0.00115428,0.10876
 726,-0.03459927,0.07552626,-0.00001862,0.00005823,0.00000603,0.0000211
 6,-0.00004009,-0.00001325,0.00001750,0.00006933,0.00001538,-0.00003788
 ,0.00000703,0.00000723,0.00001205,-0.00010280,0.00000287,0.00006622,0.
 00008633,-0.00002700,-0.00012238,-0.00002731,0.00008921,-0.00000908,-0
 .00002713,-0.00000195,-0.00002247,-0.00008389,-0.00002907,-0.00006745,
 -0.00010327,0.00000324,0.00001123,-0.00001801,-0.00000062,-0.00002404,
 0.00007547,0.00001656,0.00004723,0.00009858,0.00028678,0.00000720,-0.0
 0000008,0.00000092,-0.00023153,0.00087385,-0.00015434,-0.00000555,0.00
 000228,0.00000648,0.00167659,0.00071497,-0.00204918,0.00677628,0.00538
 928,-0.00150489,0.00017780,0.00026144,-0.00011114,-0.00311554,0.001534
 67,-0.00396816,-0.01505321,-0.02008140,0.00382409,-0.00078940,-0.00097
 327,0.00013977,-0.20707292,-0.13867891,0.01297018,0.00016003,0.0000674
 8,0.00127579,0.21671375,0.00004851,0.00011034,0.00004906,0.00002968,-0
 .00008471,-0.00002492,0.00000237,0.00010583,-0.00001872,-0.00005641,-0
 .00001824,0.00012863,0.00015093,-0.00006926,-0.00007413,-0.00012294,0.
 00001941,-0.00001367,-0.00002578,0.00002307,0.00000760,-0.00000815,-0.
 00001359,0.00000262,-0.00001648,-0.00009004,-0.00002701,-0.00000298,-0
 .00001114,-0.00002374,-0.00000611,-0.00002636,0.00000969,0.00000085,-0
 .00005017,0.00000966,0.00004606,0.00004063,-0.00041991,-0.00000582,0.0
 0002082,0.00001328,0.00082105,-0.00044212,-0.00009779,-0.00000295,0.00
 000497,0.00000451,0.00125455,-0.00226398,0.00489576,-0.02131597,-0.012
 52724,0.00102244,-0.00101527,-0.00076643,0.00007379,0.00101617,0.00202
 372,0.00272554,0.00661648,0.00726327,0.00020236,0.00031028,0.00019550,
 0.00005812,-0.13867418,-0.17514432,0.02296294,0.00069616,0.00038079,-0
 .00191023,0.15024094,0.18157186,0.00005669,0.00003903,0.00003404,0.000
 01293,-0.00005082,-0.00000316,-0.00001944,0.00004171,-0.00003179,0.000
 01110,-0.00001426,0.00008996,0.00017247,0.00007623,-0.00006534,-0.0000
 7487,0.00010819,0.00002544,-0.00006202,-0.00001653,0.00002513,-0.00000
 928,-0.00001382,0.00000815,0.00000395,-0.00002594,-0.00000083,0.000059
 40,0.00002246,-0.00004053,-0.00001420,-0.00000698,0.00000993,-0.000040
 23,-0.00007240,0.00004677,0.00029173,-0.00035446,-0.00075348,-0.000008
 58,-0.00004202,-0.00000822,-0.00031308,0.00001973,-0.00119539,0.000005
 00,0.00000459,-0.00000713,-0.00215077,0.00470478,0.00439026,0.01094554
 ,0.00902426,0.00259938,0.00049140,0.00050228,0.00004243,-0.00366705,0.
 00275883,0.00468274,-0.00873979,-0.00785918,0.00452673,-0.00043110,-0.
 00038702,0.00008400,0.01295526,0.02306934,-0.04324057,0.00102802,-0.00
 209916,-0.00280237,-0.01200559,-0.02778752,0.03436049,0.00000308,0.000
 05636,0.00001652,0.00001146,-0.00002830,-0.00001057,0.00002169,0.00004
 290,0.00001071,-0.00005164,-0.00001639,0.00001174,0.00007834,-0.000037
 72,-0.00005403,-0.00004225,-0.00001822,0.00001979,-0.00001815,0.000012
 21,0.00001268,-0.00000502,-0.00000770,0.00000108,-0.00002281,-0.000050
 18,-0.00002201,-0.00005393,-0.00013681,-0.00005941,0.00001087,-0.00001
 252,-0.00000220,-0.00024341,-0.00005981,0.00010081,0.00049679,-0.00074
 755,0.00036853,0.00001432,-0.00000236,-0.00000146,-0.00228327,-0.00383
 598,-0.00112384,-0.00000372,0.00000274,0.00000022,-0.00120334,-0.00028
 551,0.00009892,-0.00410015,-0.00009778,-0.00345977,0.00005016,0.000163
 34,0.00026293,0.00695071,-0.02062922,0.01106384,-0.06188586,0.03682710
 ,-0.02560072,0.00063070,0.00120788,0.00098173,-0.00003912,0.02487362,-
 0.01303564,-0.00017814,0.00119577,-0.00062684,0.00088865,0.00002910,0.
 00150973,0.06097269,0.00002040,0.00020126,0.00006331,0.00005495,-0.000
 11968,-0.00004397,0.00004070,0.00017953,0.00001022,-0.00012641,-0.0000
 1419,0.00009695,0.00016128,-0.00018735,-0.00008774,-0.00008304,-0.0000
 3134,-0.00005426,-0.00002575,0.00007104,0.00002094,-0.00001320,-0.0000
 2506,-0.00000056,-0.00005029,-0.00018875,-0.00007107,-0.00009966,-0.00
 023001,-0.00003125,0.00002096,-0.00005337,0.00000649,-0.00020791,0.000
 10397,0.00006069,0.00060658,-0.00038359,0.00038920,0.00001575,-0.00001
 692,-0.00000287,-0.00413600,0.00047760,0.00209311,-0.00001315,0.000006
 82,0.00001667,-0.00034316,0.00007345,-0.00069645,0.00049298,0.00279837
 ,0.00234681,0.00016102,-0.00027286,-0.00033961,0.00581661,-0.01307705,
 0.00997041,0.03652092,-0.26065786,0.11885017,0.00068262,0.00005028,-0.
 00188419,-0.00157840,-0.00192811,0.00217177,-0.00009394,-0.00021964,0.
 00011761,0.00064562,-0.00026151,-0.00163870,-0.03845480,0.27368021,-0.
 00003472,-0.00006959,-0.00001054,-0.00001613,0.00005875,0.00000697,-0.
 00000518,-0.00005714,0.00000043,0.00000833,0.00001854,-0.00001994,-0.0
 0015659,0.00012345,-0.00002652,0.00005912,-0.00009248,-0.00000694,0.00
 013257,0.00003635,-0.00009357,0.00000627,0.00002518,-0.00000275,0.0000
 1672,0.00005939,0.00002156,0.00007209,0.00007078,0.00002057,-0.0000006
 9,0.00001325,-0.00000133,0.00010596,0.00000470,-0.00011857,0.00001953,
 0.00010617,0.00008160,-0.00001432,-0.00001489,-0.00000674,-0.00128052,
 0.00192196,0.00625917,0.00000332,-0.00000341,-0.00000114,0.00006296,-0
 .00072822,-0.00072181,-0.00366397,0.00227660,0.00491799,0.00026304,-0.
 00030379,-0.00082179,-0.00151239,0.00184585,0.00233909,-0.02593858,0.1
 1893359,-0.10233855,0.00108728,-0.00172266,-0.00311562,0.00007184,0.01
 013710,-0.00130753,-0.00004065,0.00051615,-0.00016169,0.00121938,-0.00
 177297,-0.00277647,0.02953259,-0.13137434,0.09788581,0.00157268,0.0025
 4396,0.00057874,0.00170418,-0.00727937,-0.00112966,0.00994527,-0.00062
 338,0.00090384,-0.00082564,-0.00558193,-0.00197330,0.00272013,-0.00082
 900,-0.00037754,-0.00235053,0.00194011,-0.00028165,-0.00035231,-0.0015
 2701,-0.00027909,-0.00014852,0.00009440,0.00002009,-0.37139966,0.22350
 764,-0.00140083,0.00971279,0.00215999,0.00173985,0.00057973,-0.0003017
 3,0.00032000,-0.00318439,-0.00240128,0.00088352,-0.00213057,0.00262524
 ,-0.00035050,0.00020375,0.00000253,0.00017017,-0.00029144,0.00023880,0
 .00005646,0.00001865,-0.00022031,-0.00002195,-0.00003390,-0.00010755,-
 0.00001222,0.00000631,0.00004550,0.00004736,-0.00000581,-0.00001227,-0
 .00003990,0.00011396,0.00007476,0.00002613,-0.00005001,0.00001235,-0.0
 0006406,0.00002008,-0.00000284,-0.00001259,-0.00000772,-0.00004833,0.0
 0002287,-0.00000262,0.00000192,-0.00000168,0.00000104,-0.00000337,-0.0
 0000620,0.00000606,0.00000040,-0.00000218,0.35421795,0.00108809,-0.001
 20490,0.00000611,-0.00485269,-0.00152193,-0.00273588,0.03595477,-0.039
 31922,-0.00171838,0.00046011,-0.00050542,-0.00083272,0.00039468,0.0001
 5130,0.00039221,0.00033747,-0.00104765,-0.00023463,0.00017042,0.001311
 86,0.00032638,0.00010178,-0.00007200,-0.00000914,0.18037895,-0.1611472
 3,-0.01212070,0.00031547,0.00005138,0.00041533,-0.00010892,0.00009847,
 -0.00008928,-0.00024401,-0.00040712,0.00038010,0.00025847,0.00058006,-
 0.00009057,0.00016021,0.00002453,-0.00003602,-0.00020111,-0.00019005,-
 0.00008770,-0.00022605,-0.00023652,0.00000392,0.00006654,0.00011367,-0
 .00000845,0.00001341,-0.00000118,-0.00002314,-0.00002652,-0.00001573,-
 0.00000557,0.00012993,0.00008787,-0.00001668,-0.00000961,0.00000271,0.
 00001205,-0.00002260,-0.00002657,0.00002618,0.00007856,0.00006425,-0.0
 0000169,0.00003031,0.00000908,0.00000693,0.00001355,0.00001192,-0.0000
 0010,0.00001089,0.00002949,-0.00001098,-0.21414471,0.20296590,-0.00085
 595,0.00005318,0.00197405,-0.00032931,-0.00210026,0.00142262,0.0100030
 0,-0.00816806,-0.00332633,0.00157927,-0.00168432,-0.00116388,0.0005482
 1,-0.00080996,0.00041981,0.00039285,0.00038858,0.00015136,-0.00033187,
 -0.00082865,-0.00045387,-0.00010724,0.00008494,0.00005495,-0.01296690,
 -0.00528251,-0.00981883,0.00103399,0.00067938,-0.00066945,-0.00061238,
 -0.00047285,-0.00050107,-0.00014234,0.00087981,0.00001992,0.00050118,0
 .00036080,-0.00008255,0.00011492,0.00006714,-0.00011993,-0.00009752,0.
 00002140,-0.00009071,0.00001793,0.00001323,-0.00009611,0.00000559,0.00
 002974,0.00001463,-0.00001152,0.00000889,-0.00000613,-0.00001687,-0.00
 000886,-0.00000874,0.00008365,0.00002552,0.00003051,0.00000026,0.00000
 778,-0.00001044,0.00000363,0.00000052,-0.00001494,0.00002947,0.0000272
 3,-0.00000119,0.00001035,0.00000255,0.00000198,0.00000358,0.00000449,-
 0.00000112,0.00000517,0.00001249,-0.00000294,0.00091246,0.01655911,0.0
 1300071,-0.00392508,0.00126205,-0.00092249,-0.29715474,-0.02511599,-0.
 09611629,-0.01384114,-0.00612981,-0.00875094,0.00000686,0.00285045,-0.
 00092227,0.00056764,0.00030217,0.00008708,0.00153492,0.00017313,-0.000
 56674,-0.00035678,-0.00053556,-0.00032537,-0.00000388,0.00014004,0.000
 01806,0.00048860,-0.00127785,0.00178555,-0.00011885,-0.00008141,-0.000
 64690,-0.00027046,-0.00016174,-0.00025358,-0.00019155,-0.00005179,0.00
 015104,-0.00023654,0.00026932,-0.00004126,-0.00004547,-0.00003450,0.00
 012762,0.00007185,0.00008288,-0.00002482,0.00027826,-0.00023040,0.0006
 7523,-0.00002738,-0.00006898,0.00000440,-0.00000660,0.00000050,0.00001
 564,0.00001506,0.00000715,0.00000026,-0.00006038,-0.00001512,0.0000200
 9,-0.00000448,0.00000112,-0.00000991,0.00001200,0.00001166,-0.00001879
 ,-0.00003944,-0.00003489,0.00000425,-0.00001550,-0.00000413,-0.0000033
 3,-0.00000666,-0.00000675,-0.00000101,-0.00000470,-0.00001509,0.000004
 92,-0.00003947,-0.00012739,0.00022639,0.31337393,-0.02584071,-0.000393
 13,-0.00835958,-0.02673978,-0.05540320,-0.01540277,0.02370996,0.006305
 93,0.00884761,0.00182150,-0.00337901,-0.00233522,0.00056550,-0.0007474
 6,-0.00006905,0.00027858,-0.00329182,-0.00155689,-0.00164268,-0.001155
 26,-0.00025957,-0.00004629,0.00030408,0.00000377,-0.00215472,0.0020754
 6,0.00112241,0.00159301,0.00092931,0.00081836,-0.00036424,-0.00013194,
 -0.00011403,0.00010414,-0.00095712,-0.00007270,-0.00047608,0.00042986,
 0.00004717,0.00009013,0.00012488,-0.00013605,0.00004550,0.00007572,-0.
 00005110,0.00047844,0.00115301,0.00065652,-0.00002756,-0.00003354,0.00
 000402,-0.00000684,0.00001106,0.00001423,0.00000182,-0.00000203,-0.000
 00992,0.00000873,-0.00001764,0.00002605,-0.00000665,0.00001321,-0.0000
 0775,0.00000826,0.00000706,-0.00002689,-0.00001701,-0.00001861,0.00000
 087,-0.00000549,-0.00000081,-0.00000140,-0.00000286,-0.00000304,-0.000
 00253,-0.00000105,-0.00000473,0.00000266,-0.00016452,0.00019303,0.0001
 2869,0.02879091,0.05391674,-0.00668754,0.00063991,-0.00193952,-0.09675
 419,-0.01601611,-0.06637652,-0.00396588,-0.00107936,0.00463084,-0.0004
 3081,-0.00015318,0.00765208,0.00025533,-0.00064243,-0.00014642,0.00042
 546,-0.00140444,0.00116523,-0.00084670,-0.00096473,0.00050174,-0.00009
 007,0.00015790,-0.00005481,0.00204367,0.00170653,-0.00466360,-0.001751
 84,-0.00042715,0.00014870,0.00112974,0.00032485,0.00052157,0.00023969,
 0.00094593,-0.00039954,0.00020736,-0.00031887,-0.00000931,-0.00012733,
 -0.00006855,0.00000816,0.00006879,-0.00000017,0.00008080,0.00052491,0.
 00068282,-0.00094957,0.00000360,0.00001748,-0.00000111,0.00000104,-0.0
 0000318,-0.00000104,-0.00000337,0.00000178,-0.00000104,0.00001104,-0.0
 0002763,0.00000862,-0.00000113,0.00000236,-0.00000774,0.00000380,0.000
 00690,-0.00001176,-0.00000653,-0.00000592,-0.00000093,-0.00000126,0.00
 000062,-0.00000056,-0.00000230,0.00000011,0.00000097,-0.00000051,-0.00
 000185,0.00000126,0.00027184,-0.00010669,-0.00072230,0.10548318,0.0167
 3308,0.06056580\\-0.00003226,0.00000548,0.00001059,-0.00000726,0.00001
 654,-0.00001930,0.00004081,0.00007661,0.00003150,0.00002377,0.00005829
 ,-0.00000730,-0.00008922,-0.00006326,0.00003273,0.00006180,-0.00004133
 ,-0.00002651,0.00001045,0.00002565,0.00000238,-0.00000249,0.00000143,-
 0.00000281,-0.00003811,-0.00006442,0.00000896,0.00000565,-0.00007803,-
 0.00002496,-0.00001787,-0.00000063,0.00000224,-0.00001655,0.00003546,-
 0.00000084,0.00005865,0.00005886,-0.00000377,0.00001177,0.00000186,0.0
 0000542,-0.00002642,-0.00001032,-0.00002211,-0.00000013,-0.00000522,-0
 .00000292,-0.00001920,-0.00000305,0.00000868,0.00000313,0.00000204,0.0
 0000496,0.00000983,0.00000306,0.00000488,0.00000928,-0.00002204,0.0000
 1882,0.00000264,0.00000458,-0.00000382,-0.00000954,0.00000921,-0.00000
 075,0.00000081,0.00000175,0.00000121,-0.00000251,-0.00000214,0.0000028
 4,-0.00000263,0.00000298,0.00000371,-0.00000349,0.00000051,0.00000384,
 0.00002226,-0.00000159,-0.00002253,0.00000687,-0.00001228,-0.00000517\
 \\@
 The archive entry for this job was punched.


 ERROR IS THE FORCE THAT WELDS MEN TOGETHER....
 TRUTH IS COMMUNICATED TO MEN ONLY BY DEEDS OF TRUTH.
           TOLSTOI,MY RELIGION
 Job cpu time:       0 days  2 hours 31 minutes 44.4 seconds.
 Elapsed time:       0 days  2 hours 32 minutes  7.4 seconds.
 File lengths (MBytes):  RWF=    680 Int=      0 D2E=      0 Chk=     32 Scr=      8
 Normal termination of Gaussian 16 at Tue Dec  3 15:42:44 2019.
