
                                 *****************
                                 * O   R   C   A *
                                 *****************

                                            #,                                       
                                            ###                                      
                                            ####                                     
                                            #####                                    
                                            ######                                   
                                           ########,                                 
                                     ,,################,,,,,                         
                               ,,#################################,,                 
                          ,,##########################################,,             
                       ,#########################################, ''#####,          
                    ,#############################################,,   '####,        
                  ,##################################################,,,,####,       
                ,###########''''           ''''###############################       
              ,#####''   ,,,,##########,,,,          '''####'''          '####       
            ,##' ,,,,###########################,,,                        '##       
           ' ,,###''''                  '''############,,,                           
         ,,##''                                '''############,,,,        ,,,,,,###''
      ,#''                                            '''#######################'''  
     '                                                          ''''####''''         
             ,#######,   #######,   ,#######,      ##                                
            ,#'     '#,  ##    ##  ,#'     '#,    #''#        ,####,    ,#,          
            ##       ##  ##   ,#'  ##            #'  '#       #'       ,# #          
            ##       ##  #######   ##           ,######,      #####,      #          
            '#,     ,#'  ##    ##  '#,     ,#' ,#      #,     #,   #      #          
             '#######'   ##     ##  '#######'  #'      '#     '####' #    #          



                #########################################################
                #                        -***-                          #
                #          Department of theory and spectroscopy        #
                #                                                       #
                #                      Frank Neese                      #
                #                                                       #
                #     Directorship, Architecture, Infrastructure        #
                #                    SHARK, DRIVERS                     #
                #        Core code/Algorithms in most modules           #
                #                                                       #
                #        Max Planck Institute fuer Kohlenforschung      #
                #                Kaiser Wilhelm Platz 1                 #
                #                 D-45470 Muelheim/Ruhr                 #
                #                      Germany                          #
                #                                                       #
                #                  All rights reserved                  #
                #                        -***-                          #
                #########################################################


                         Program Version 6.1.0  -  RELEASE   -
                                (GIT: $679e74b$)
                          ($2025-06-10 18:02:51 +0200$)


 With contributions from (in alphabetic order):
[Max-Planck-Institut fuer Kohlenforschung]                               
  Daniel Aravena         : Magnetic Suceptibility                        
  Michael Atanasov       : Ab Initio Ligand Field Theory (pilot matlab implementation)
  Alexander A. Auer      : GIAO ZORA, VPT2 properties, NMR spectrum      
  Ute Becker             : All parallelization in ORCA, NUMFREQ, NUMCALC 
  Giovanni Bistoni       : ED, misc. LED, open-shell LED, HFLD           
  Dmytro Bykov           : pre 5.0 version of the SCF Hessian            
  Marcos Casanova-Páez   : Triplet and SCS-CIS(D). UHF-(DLPNO)-IP/EA/STEOM-CCSD. UHF-CVS-IP/STEOM-CCSD   
  Vijay G. Chilkuri      : MRCI spin determinant printing, contributions to CSF-ICE 
  Pauline Colinet        : FMM embedding                                 
  Dipayan Datta          : RHF DLPNO-CCSD density                        
  Achintya Kumar Dutta   : EOM-CC, STEOM-CC                              
  Nicolas Foglia         : Exact transition moments, OPA infrastructure, MCD improvements    
  Dmitry Ganyushin       : Spin-Orbit,Spin-Spin,Magnetic field MRCI      
  Miquel Garcia-Rates    : C-PCM and meta-GGA Hessian, CCSD/C-PCM, Gaussian charge scheme 
  Tiago L. C. Gouveia    : GS-ROHF, GS-ROCIS                             
  Yang Guo               : DLPNO-NEVPT2, F12-NEVPT2, CIM, IAO-localization        
  Andreas Hansen         : Spin unrestricted coupled pair/coupled cluster methods 
  Ingolf Harden          : AUTO-CI MPn and infrastructure                
  Benjamin Helmich-Paris : MC-RPA, TRAH-(SCF,CASSCF), AVAS, COSX integrals, SCF dyn. polar., MC-PDFT, srDFT 
  Lee Huntington         : MR-EOM, pCC                                   
  Robert Izsak           : Overlap fitted RIJCOSX, COSX-SCS-MP3, EOM     
  Riya Kayal             : Wick's Theorem for AUTO-CI, AUTO-CI UHF-CCSDT 
  Emily Kempfer          : AUTO-CI RHF CISDT and CCSDT, approximate NEVPT4
  Christian Kollmar      : KDIIS, OOCD, Brueckner-CCSD(T), CCSD density, CASPT2, CASPT2-K, improved NEVPT2 
  Axel Koslowski         : Symmetry handling                             
  Simone Kossmann        : meta-GGA functionals, TD-DFT gradient, OOMP2, (MP2 Hessian; deprecated post 5.0) 
  Lucas Lang             : DCDCAS, Hyperfine gauge corrections, ICE-SOC+SSC
  Marvin Lechner         : AUTO-CI (C++ implementation), FIC-MRCC        
  Spencer Leger          : CASSCF response                               
  Dagmar Lenk            : GEPOL surface, SMD, ORCA-2-JSON               
  Dimitrios Liakos       : Extrapolation schemes; Compound Job, Property file
  Dimitrios Manganas     : Further ROCIS development; embedding schemes. LFT, Crystal Embedding 
  Dimitrios Pantazis     : SARC Basis sets                               
  Anastasios Papadopoulos: AUTO-CI, single reference methods and gradients 
  Taras Petrenko         : pre 6.0 DFT Hessian and TD-DFT gradient,  ECA, NRVS 
  Petra Pikulova         : Analytic Raman intensities                    
  Peter Pinski           : DLPNO-MP2, DLPNO-MP2 Gradient                 
  Shashank Vittal Rao    : ES-AILFT, MagRelax                            
  Christoph Reimann      : Effective Core Potentials                     
  Marius Retegan         : Local ZFS, SOC                                
  Christoph Riplinger    : Optimizer, TS searches, QM/MM, DLPNO-CCSD(T), (RO)-DLPNO pert. Triples 
  Michael Roemelt        : Original ROCIS implementation, recursive CI coupling coefficients
  Masaaki Saitow         : Open-shell DLPNO-CCSD energy and density      
  Barbara Sandhoefer     : DKH picture change effects                    
  Yorick L. A. Schmerwitz: GMF and freeze-and-release deltaSCF, NEB S-IDPP initial path                    
  Kantharuban Sivalingam : CASSCF convergence/infrastructure, NEVPT2, NEVPT3, NEVPT4(SD), FIC-MRCI and CEPA variants
  Bernardo de Souza      : ESD, SOC TD-DFT                               
  Georgi L. Stoychev     : AutoAux, RI-MP2 NMR, DLPNO-MP2 response, X2C  
  Van Anh Tran           : RI-MP2 g-tensors                              
  Willem Van den Heuvel  : Paramagnetic NMR                              
  Zikuan Wang            : NOTCH, Electric field optimization            
  Frank Wennmohs         : Technical directorship and infrastructure     
  Hang Xu                : AUTO-CI-Response properties                   
                                                                         
[FACCTs GmbH]                                                            
  Markus Bursch, Nicolas Foglia, Miquel Garcia-Rates, Ingolf Harden, Hagen Neugebauer, Anastasios Papadopoulos, 
  Christoph Riplinger, Bernardo de Souza, Georgi L. Stoychev                                                    
                                                                 
  APM, various basis sets, CI-OPT, improved COSX, DLPNO-Multilevel,           
  DOCKER, DRACO, updates on ESD, Fragmentator, GOAT, IRC, LR-CPCM, L-BFGS, MBIS, meta-GGA TD-DFT gradient, ML-optimized integration grids, 
  MM, NACMEs, nearIR, NEB, NEB-TS, NL-DFT gradient (VV10), 2- and 3-layer-ONIOM, interface openCOSMO-RS, QMMM,   
  Crystal-QMMM, RESP, rigid body optimization, SF, symmetry and pop. for TD-DFT, various functionals, SOLVATOR                                   
                                                                         
[Other institutions]                                                     
  V. Asgeirsson          : NEB                                           
  Christoph Bannwarth    : sTDA-DFT, sTD-DFT, PBEh-3c, B97-3c, D3        
  Giovanni Bistoni       : ETS/NOCV, ADLD/ADEX, COVALED                  
  Martin Brehm           : Molecular dynamics                            
  Ronald Cardenas        : ETS/NOCV                                      
  Martina Colucci        : COVALED                                       
  Sebastian Ehlert       : rSCAN, r2SCAN, r2SCAN-3c, D4, dhf basis sets  
  Marvin Friede          : D4 for Fr, Ra, Ac-Lr                          
  Lars Goerigk           : TD-DFT with DH, B97 family of functionals     
  Stefan Grimme          : VdW corrections, initial TS optimization, DFT functionals, gCP, sTDA/sTD-DF 
  Waldemar Hujo          : DFT-NL                                        
  H. Jonsson             : NEB                                           
  Holger Kruse           : gCP                                           
  Marcel Mueller         : wB97X-3c, vDZP basis set                      
  Hagen Neugebauer       : wr2SCAN, Native XTB                           
  Gianluca Regni         : ADLD/ADEX                                     
  Tobias Risthaus        : pre 6.0 range-separated hybrid DFT and stability analysis
  Lukas Wittmann         : regularized MP2, r2SCAN double-hybrids, wr2SCAN        
                                                                         
We gratefully acknowledge several colleagues who have allowed us to      
interface, adapt or use parts of their codes:                            
  Ed Valeev, F. Pavosevic, A. Kumar             : LibInt (2-el integral package), F12 methods 
  Garnet Chan, S. Sharma, J. Yang, R. Olivares  : DMRG                   
  Ulf Ekstrom                                   : XCFun DFT Library      
  Mihaly Kallay                                 : mrcc  (arbitrary order and MRCC methods)
  Frank Weinhold                                : gennbo (NPA and NBO analysis)           
  Simon Mueller                                 : openCOSMO-RS                            
  Christopher J. Cramer and Donald G. Truhlar   : smd solvation model                     
  S Lehtola, MJT Oliveira, MAL Marques          : LibXC Library                           
  Liviu Ungur et al                             : ANISO software                          


 Your calculation uses the libint2 library for the computation of 2-el integrals
 For citations please refer to: http://libint.valeyev.net

 Your ORCA version has been built with support for libXC version: 7.0.0
 For citations please refer to: https://libxc.gitlab.io

 This ORCA versions uses:
   CBLAS   interface :  Fast vector & matrix operations
   LAPACKE interface :  Fast linear algebra routines
   SCALAPACK package :  Parallel linear algebra routines
   Shared memory     :  Shared parallel matrices
   BLAS/LAPACK       :  OpenBLAS 0.3.29  USE64BITINT DYNAMIC_ARCH NO_AFFINITY Cooperlake SINGLE_THREADED
        Core in use  :  Cooperlake
   Copyright (c) 2011-2014, The OpenBLAS Project


  ***********************************
  * Starting time: Sun Jun 22 13:54:24 2025
  * Host name:     MM1
  * Process ID:    1135375
  * Working dir.:  /home/alex/Documents/github/orca_parser/Test-cases/GOAT
  ***********************************

Your calculation utilizes the semiempirical GFN2-xTB method
Please cite in your paper:
Bannwarth, C.; Ehlert S.; Grimme, S. J. Chem. Theory Comput. 2019, 15, 1652.
   

================================================================================

================================================================================
                                        WARNINGS
                       Please study these warnings very carefully!
================================================================================


================================================================================
 STARTING AUTOMATIC FRAGMENTATION: 
================================================================================

WARNING: Geometry Optimization
  ===> : Switching off AutoStart
         For restart on a previous wavefunction, please use MOREAD

WARNING: Found dipole moment calculation with XTB calculation
  ===> : Switching off dipole moment calculation


================================================================================
                                       INPUT FILE
================================================================================
NAME = 1,3-dichloropropane.inp
|  1> ! XTB GOAT
|  2> 
|  3> %pal
|  4>   nprocs 16
|  5> end
|  6> 
|  7> 
|  8> * xyz 0 1
|  9> C      0.000000    0.000000    0.000000
| 10> C      1.530000    0.000000    0.000000
| 11> C      2.880000    0.000000    0.000000
| 12> Cl     4.410000    0.000000    0.000000
| 13> Cl    -1.470000    0.000000    0.000000
| 14> H      0.180000    0.930000    0.000000
| 15> H      0.180000   -0.930000    0.000000
| 16> H      1.710000    0.930000    0.000000
| 17> H      1.710000   -0.930000    0.000000
| 18> H      2.690000    0.930000    0.000000
| 19> H      2.690000   -0.930000    0.000000
| 20> *
| 21> 
| 22>                          ****END OF INPUT****
================================================================================

                       *****************************
                       * Geometry Optimization Run *
                       *****************************


                       *********************************
                       *              GOAT             *
                       * Global Optimization Algorithm *
                       *********************************

Geometry optimization settings:
Update method            Update   .... BFGS
Choice of coordinates    CoordSys .... (2022) Redundant Internals
Initial Hessian          InHess   .... Almloef's Model
Max. no of cycles        MaxIter  .... 50

Convergence Tolerances:
Energy Change            TolE     ....  5.0000e-06 Eh
Max. Gradient            TolMAXG  ....  3.0000e-04 Eh/bohr
RMS Gradient             TolRMSG  ....  1.0000e-04 Eh/bohr
Max. Displacement        TolMAXD  ....  4.0000e-03 bohr
RMS Displacement         TolRMSD  ....  2.0000e-03 bohr
Strict Convergence                .... True

------------------------------------------------------------------------------
                        ORCA OPTIMIZATION COORDINATE SETUP
------------------------------------------------------------------------------

The optimization will be done in redundant internal coordinates (2022)
Making redundant internal coordinates   ...  (2022 redundants) done
Evaluating the initial hessian          ...  (Almloef) done
Evaluating the coordinates              ...  done
Calculating the B-matrix                .... done
Calculating the G-matrix                .... done
The number of degrees of freedom        ....   37

    -----------------------------------------------------------------
                    Redundant Internal Coordinates


    -----------------------------------------------------------------
         Definition                    Initial Value    Approx d2E/dq
    -----------------------------------------------------------------
      1. B(C   1,C   0)                  1.5300         0.373575   
      2. B(C   2,C   1)                  1.3500         0.723696   
      3. B(Cl  3,C   2)                  1.5300         0.838250   
      4. B(Cl  4,C   0)                  1.4700         1.044960   
      5. B(H   5,C   0)                  0.9473         0.608355   
      6. B(H   6,C   0)                  0.9473         0.608355   
      7. B(H   7,C   1)                  0.9473         0.608355   
      8. B(H   8,C   1)                  0.9473         0.608355   
      9. B(H   9,C   2)                  0.9492         0.604010   
     10. B(H  10,C   2)                  0.9492         0.604010   
     11. A(C   1,C   0,H   5)           79.0459         0.353973   
     12. A(C   1,C   0,H   6)           79.0459         0.353973   
     13. A(H   5,C   0,H   6)          158.0919         0.344915   
     14. A(Cl  4,C   0,H   5)          100.9541         0.442727   
     15. A(Cl  4,C   0,H   6)          100.9541         0.442727   
     16. A(C   2,C   1,H   7)           79.0459         0.396752   
     17. A(C   0,C   1,H   7)          100.9541         0.353973   
     18. A(H   7,C   1,H   8)          158.0919         0.344915   
     19. A(C   2,C   1,H   8)           79.0459         0.396752   
     20. A(C   0,C   1,H   8)          100.9541         0.353973   
     21. A(Cl  3,C   2,H  10)          101.5467         0.424967   
     22. A(C   1,C   2,H  10)           78.4533         0.396253   
     23. A(Cl  3,C   2,H   9)          101.5467         0.424967   
     24. A(H   9,C   2,H  10)          156.9066         0.344086   
     25. A(C   1,C   2,H   9)           78.4533         0.396253   
     26. D(H   7,C   1,C   0,H   6)    180.0000         0.011144   
     27. D(H   8,C   1,C   0,H   6)      0.0000         0.011144   
     28. D(H   7,C   1,C   0,H   5)      0.0000         0.011144   
     29. D(H   8,C   1,C   0,H   5)    180.0000         0.011144   
     30. D(H  10,C   2,C   1,H   8)      0.0000         0.043446   
     31. D(H  10,C   2,C   0,H   5)    180.0000         0.010000   
     32. D(H   9,C   2,C   0,H   6)    180.0000         0.010000   
     33. D(H   9,C   2,C   1,H   8)    180.0000         0.043446   
     34. D(H   9,C   2,C   0,H   5)      0.0000         0.010000   
     35. D(H  10,C   2,C   1,H   7)    180.0000         0.043446   
     36. D(H   9,C   2,C   1,H   7)      0.0000         0.043446   
     37. D(H  10,C   2,C   0,H   6)      0.0000         0.010000   
    -----------------------------------------------------------------

Number of atoms                         .... 11
Number of degrees of freedom            .... 37


         *************************************************************
         *                GEOMETRY OPTIMIZATION CYCLE   1            *
         *************************************************************
---------------------------------
CARTESIAN COORDINATES (ANGSTROEM)
---------------------------------
  C     0.000000    0.000000    0.000000
  C     1.530000    0.000000    0.000000
  C     2.880000    0.000000    0.000000
  Cl    4.410000    0.000000    0.000000
  Cl   -1.470000    0.000000    0.000000
  H     0.180000    0.930000    0.000000
  H     0.180000   -0.930000    0.000000
  H     1.710000    0.930000    0.000000
  H     1.710000   -0.930000    0.000000
  H     2.690000    0.930000    0.000000
  H     2.690000   -0.930000    0.000000

----------------------------
CARTESIAN COORDINATES (A.U.)
----------------------------
  NO LB    ZA    FRAG    MASS        X           Y           Z
   0 C   6.0000    1    12.011    0.000000    0.000000    0.000000
   1 C   6.0000    1    12.011    2.891281    0.000000    0.000000
   2 C   6.0000    1    12.011    5.442411    0.000000    0.000000
   3 Cl 17.0000    1    35.453    8.333692    0.000000    0.000000
   4 Cl 17.0000    1    35.453   -2.777897    0.000000    0.000000
   5 H   1.0000    1     1.008    0.340151    1.757445    0.000000
   6 H   1.0000    1     1.008    0.340151   -1.757445    0.000000
   7 H   1.0000    1     1.008    3.231432    1.757445    0.000000
   8 H   1.0000    1     1.008    3.231432   -1.757445    0.000000
   9 H   1.0000    1     1.008    5.083363    1.757445    0.000000
  10 H   1.0000    1     1.008    5.083363   -1.757445    0.000000

      -----------------------------------------------------------      
     |                   =====================                   |     
     |                           x T B                           |     
     |                   =====================                   |     
     |                         S. Grimme                         |     
     |          Mulliken Center for Theoretical Chemistry        |     
     |                    University of Bonn                     |     
      -----------------------------------------------------------      

   * xtb version 6.7.1 (edcfbbe) compiled by 'albert@albert-system' on 2024-07-22

   xtb is free software: you can redistribute it and/or modify it under
   the terms of the GNU Lesser General Public License as published by
   the Free Software Foundation, either version 3 of the License, or
   (at your option) any later version.
   
   xtb is distributed in the hope that it will be useful,
   but WITHOUT ANY WARRANTY; without even the implied warranty of
   MERCHANTABILITY or FITNESS FOR A PARTICULAR PURPOSE.  See the
   GNU Lesser General Public License for more details.
   
   Cite this work as:
   * C. Bannwarth, E. Caldeweyher, S. Ehlert, A. Hansen, P. Pracht,
     J. Seibert, S. Spicher, S. Grimme, WIREs Comput. Mol. Sci., 2020, 11,
     e01493. DOI: 10.1002/wcms.1493
   
   for GFN2-xTB:
   * C. Bannwarth, S. Ehlert and S. Grimme., J. Chem. Theory Comput., 2019,
     15, 1652-1671. DOI: 10.1021/acs.jctc.8b01176
   for GFN1-xTB:
   * S. Grimme, C. Bannwarth, P. Shushkov, J. Chem. Theory Comput., 2017,
     13, 1989-2009. DOI: 10.1021/acs.jctc.7b00118
   for GFN0-xTB:
   * P. Pracht, E. Caldeweyher, S. Ehlert, S. Grimme, ChemRxiv, 2019, preprint.
     DOI: 10.26434/chemrxiv.8326202.v1
   for GFN-FF:
   * S. Spicher and S. Grimme, Angew. Chem. Int. Ed., 2020, 59, 15665-15673.
     DOI: 10.1002/anie.202004239
   
   for ALPB and GBSA implicit solvation:
   * S. Ehlert, M. Stahn, S. Spicher, S. Grimme, J. Chem. Theory Comput.,
     2021, 17, 4250-4261. DOI: 10.1021/acs.jctc.1c00471
   
   for ddCOSMO and CPCM-X implicit solvation:
   * M. Stahn, S. Ehlert, S. Grimme, J. Phys. Chem. A,
     2023, XX, XXXX-XXXX. DOI: 10.1021/acs.jpca.3c04382
   
   for DFT-D4:
   * E. Caldeweyher, C. Bannwarth and S. Grimme, J. Chem. Phys., 2017,
     147, 034112. DOI: 10.1063/1.4993215
   * E. Caldeweyher, S. Ehlert, A. Hansen, H. Neugebauer, S. Spicher,
     C. Bannwarth and S. Grimme, J. Chem. Phys., 2019, 150, 154122.
     DOI: 10.1063/1.5090222
   * E. Caldeweyher, J.-M. Mewes, S. Ehlert and S. Grimme, Phys. Chem. Chem. Phys.
     2020, 22, 8499-8512. DOI: 10.1039/D0CP00502A
   
   for sTDA-xTB:
   * S. Grimme and C. Bannwarth, J. Chem. Phys., 2016, 145, 054103.
     DOI: 10.1063/1.4959605
   
   in the mass-spec context:
   * V. Asgeirsson, C. Bauer and S. Grimme, Chem. Sci., 2017, 8, 4879.
     DOI: 10.1039/c7sc00601b
   * J. Koopman and S. Grimme, ACS Omega 2019, 4, 12, 15120-15133.
     DOI: 10.1021/acsomega.9b02011
   
   for metadynamics refer to:
   * S. Grimme, J. Chem. Theory Comput., 2019, 155, 2847-2862
     DOI: 10.1021/acs.jctc.9b00143
   
   for SPH calculations refer to:
   * S. Spicher and S. Grimme, J. Chem. Theory Comput., 2021, 17, 1701-1714
     DOI: 10.1021/acs.jctc.0c01306
   
   for ONIOM refer to:
   * C. Plett, A. Katbashev, S. Ehlert, S. Grimme, M. Bursch,
     Phys. Chem. Chem. Phys., 2023, 25, 17860-17868. DOI: 10.1039/D3CP02178E
   
   for DIPRO refer to:
   * J. Kohn, N. Gildemeister, S. Grimme, D. Fazzi, A. Hansen,
     J. Chem. Phys., 2023, just accepted.
   
   for PTB refer to:
   * S. Grimme, M. Mueller, A. Hansen, J. Chem. Phys., 2023, 158, 124111.
     DOI: 10.1063/5.0137838
   
   with help from (in alphabetical order)
   P. Atkinson, C. Bannwarth, F. Bohle, G. Brandenburg, E. Caldeweyher
   M. Checinski, S. Dohm, S. Ehlert, S. Ehrlich, I. Gerasimov, C. Hölzer
   A. Katbashev, J. Kohn, J. Koopman, C. Lavigne, S. Lehtola, F. März, M. Müller,
   F. Musil, H. Neugebauer, J. Pisarek, C. Plett, P. Pracht, F. Pultar,
   J. Seibert, P. Shushkov, S. Spicher, M. Stahn, M. Steiner, T. Strunk,
   J. Stückrath, T. Rose, and J. Unsleber
   
 * started run on 2025/06/22 at 13:54:26.230     
   ID    Z sym.   atoms
    1    6 C      1-3
    2   17 Cl     4, 5
    3    1 H      6-11

           -------------------------------------------------
          |                Calculation Setup                |
           -------------------------------------------------

          program call               : /Data/Software/orca/orca_6_1_0_linux_x86-64_shared_openmpi418_avx2/otool_xtb 1,3-dichloropropane_XTB.xyz --grad -c 0 -u 0 -P 16 --namespace 1,3-dichloropropane --input 1,3-dichloropropane_XTB.input.tmp --acc 0.200000
          calculation namespace      : 1,3-dichloropropane
          coordinate file            : 1,3-dichloropropane_XTB.xyz
          omp threads                :                    16


           -------------------------------------------------
          |                 G F N 2 - x T B                 |
           -------------------------------------------------

        Reference                      10.1021/acs.jctc.8b01176
      * Hamiltonian:
        H0-scaling (s, p, d)           1.850000    2.230000    2.230000
        zeta-weighting                 0.500000
      * Dispersion:
        s8                             2.700000
        a1                             0.520000
        a2                             5.000000
        s9                             5.000000
      * Repulsion:
        kExp                           1.500000    1.000000
        rExp                           1.000000
      * Coulomb:
        alpha                          2.000000
        third order                    shell-resolved
        anisotropic                    true
        a3                             3.000000
        a5                             4.000000
        cn-shift                       1.200000
        cn-exp                         4.000000
        max-rad                        5.000000


          ...................................................
          :                      SETUP                      :
          :.................................................:
          :  # basis functions                  38          :
          :  # atomic orbitals                  36          :
          :  # shells                           18          :
          :  # electrons                        32          :
          :  max. iterations                   250          :
          :  Hamiltonian                  GFN2-xTB          :
          :  restarted?                      false          :
          :  GBSA solvation                  false          :
          :  PC potential                    false          :
          :  electronic temp.          300.0000000     K    :
          :  accuracy                    0.2000000          :
          :  -> integral cutoff          0.3198970E+02      :
          :  -> integral neglect         0.2000000E-08      :
          :  -> SCF convergence          0.2000000E-06 Eh   :
          :  -> wf. convergence          0.2000000E-04 e    :
          :  Broyden damping             0.4000000          :
          :  net charge                          0          :
          :  unpaired electrons                  0          :
          ...................................................

 iter      E             dE          RMSdq      gap      omega  full diag
   1    -17.9995066 -0.179995E+02  0.827E+00    2.95       0.0  T
   2    -17.9925234  0.698316E-02  0.552E+00    2.55       1.0  T
   3    -17.8924456  0.100078E+00  0.433E+00    3.43       1.0  T
   4    -18.0366338 -0.144188E+00  0.125E+00    2.73       1.0  T
   5    -18.0420074 -0.537369E-02  0.815E-01    2.60       1.0  T
   6    -18.0435641 -0.155664E-02  0.561E-01    2.54       1.0  T
   7    -18.0447606 -0.119656E-02  0.338E-01    2.59       1.0  T
   8    -18.0453816 -0.620911E-03  0.121E-01    2.55       1.0  T
   9    -18.0454310 -0.494652E-04  0.505E-02    2.56       1.0  T
  10    -18.0454433 -0.123081E-04  0.880E-03    2.56       3.4  T
  11    -18.0454434 -0.115009E-06  0.721E-03    2.56       4.2  T
  12    -18.0454437 -0.262059E-06  0.334E-03    2.56       9.0  T
  13    -18.0454438 -0.851906E-07  0.110E-03    2.56      27.3  T
  14    -18.0454438 -0.544735E-08  0.160E-04    2.56     188.7  T
  15    -18.0454438  0.433857E-10  0.122E-04    2.56     246.2  T

   *** convergence criteria satisfied after 15 iterations ***

         #    Occupation            Energy/Eh            Energy/eV
      -------------------------------------------------------------
         1        2.0000           -1.0844068             -29.5082
       ...           ...                  ...                  ...
        10        2.0000           -0.4816433             -13.1062
        11        2.0000           -0.4743547             -12.9078
        12        2.0000           -0.4293814             -11.6841
        13        2.0000           -0.4062520             -11.0547
        14        2.0000           -0.3665261              -9.9737
        15        2.0000           -0.3397860              -9.2460
        16        2.0000           -0.3139037              -8.5418 (HOMO)
        17                         -0.2196746              -5.9777 (LUMO)
        18                         -0.1956122              -5.3229
        19                         -0.1311490              -3.5687
        20                         -0.0535801              -1.4580
        21                         -0.0251456              -0.6842
       ...                                ...                  ...
        36                          1.5105032              41.1029
      -------------------------------------------------------------
                  HL-Gap            0.0942290 Eh            2.5641 eV
             Fermi-level           -0.2667892 Eh           -7.2597 eV

 SCC (total)                   0 d,  0 h,  0 min,  0.010 sec
 SCC setup                      ...        0 min,  0.000 sec (  1.270%)
 Dispersion                     ...        0 min,  0.000 sec (  0.605%)
 classical contributions        ...        0 min,  0.000 sec (  0.346%)
 integral evaluation            ...        0 min,  0.007 sec ( 70.299%)
 iterations                     ...        0 min,  0.002 sec ( 23.308%)
 molecular gradient             ...        0 min,  0.000 sec (  3.375%)
 printout                       ...        0 min,  0.000 sec (  0.626%)

         :::::::::::::::::::::::::::::::::::::::::::::::::::::
         ::                     SUMMARY                     ::
         :::::::::::::::::::::::::::::::::::::::::::::::::::::
         :: total energy             -17.604609167119 Eh    ::
         :: gradient norm              0.581462737271 Eh/a0 ::
         :: HOMO-LUMO gap              2.564102052261 eV    ::
         ::.................................................::
         :: SCC energy               -18.045452081917 Eh    ::
         :: -> isotropic ES            0.023472435404 Eh    ::
         :: -> anisotropic ES          0.022035196800 Eh    ::
         :: -> anisotropic XC         -0.034086111387 Eh    ::
         :: -> dispersion             -0.005888855357 Eh    ::
         :: repulsion energy           0.440842914798 Eh    ::
         :: add. restraining           0.000000000000 Eh    ::
         :: total charge               0.000000000000 e     ::
         :::::::::::::::::::::::::::::::::::::::::::::::::::::


Property printout bound to 'properties.out'

           -------------------------------------------------
          | TOTAL ENERGY              -17.604609167119 Eh   |
          | GRADIENT NORM               0.581462737271 Eh/α |
          | HOMO-LUMO GAP               2.564102052261 eV   |
           -------------------------------------------------

------------------------------------------------------------------------
 * finished run on 2025/06/22 at 13:54:26.244     
------------------------------------------------------------------------
 total:
 * wall-time:     0 d,  0 h,  0 min,  0.014 sec
 *  cpu-time:     0 d,  0 h,  0 min,  0.198 sec
 * ratio c/w:    13.680 speedup
 SCF:
 * wall-time:     0 d,  0 h,  0 min,  0.010 sec
 *  cpu-time:     0 d,  0 h,  0 min,  0.156 sec
 * ratio c/w:    14.907 speedup


-------------------------   --------------------
FINAL SINGLE POINT ENERGY       -17.604609167120
-------------------------   --------------------


-------------
DIPOLE MOMENT
-------------
                                X             Y             Z
Total Dipole Moment    :      0.95700      -0.00000       0.00000
                        -----------------------------------------
Magnitude (a.u.)       :      0.95700
Magnitude (Debye)      :      2.43250


------------------
CARTESIAN GRADIENT
------------------

   1   C   :   -0.030482224    0.000000000   -0.000000000
   2   C   :    0.103184352    0.000000000   -0.000000000
   3   C   :   -0.216986001    0.000000000    0.000000000
   4   Cl  :   -0.251811782   -0.000000000    0.000000000
   5   Cl  :    0.325681051   -0.000000000   -0.000000000
   6   H   :    0.009305309   -0.121812747    0.000000000
   7   H   :    0.009305309    0.121812747    0.000000000
   8   H   :    0.121869188   -0.083594592   -0.000000000
   9   H   :    0.121869188    0.083594592   -0.000000000
  10   H   :   -0.095967196   -0.094902345    0.000000000
  11   H   :   -0.095967196    0.094902345    0.000000000

Difference to translation invariance:
           :   -0.0000000000    0.0000000000   -0.0000000000

Difference to rotation invariance:
           :    0.0000000000   -0.0000000000    0.0000000000

Norm of the Cartesian gradient     ...    0.5814627373
RMS gradient                       ...    0.1012196703
MAX gradient                       ...    0.3256810508
------------------------------------------------------------------------------
                         ORCA GEOMETRY RELAXATION STEP
------------------------------------------------------------------------------

Reading the OPT-File                    .... done
Getting information on internals        .... done
Copying old internal coords+grads       .... done
Making the new internal coordinates     .... (2022 redundants) done
Validating the new internal coordinates .... (2022 redundants) done
Calculating the B-matrix                .... done
Calculating the G,G- and P matrices     .... done
Transforming gradient to internals      .... done
Projecting the internal gradient        .... done
Number of atoms                         ....  11
Number of internal coordinates          ....  37
Current Energy                          ....   -17.604609167 Eh
Current gradient norm                   ....     0.581462737 Eh/bohr
Maximum allowed component of the step   ....  0.300
Current trust radius                    ....  0.300
Evaluating the initial hessian          ....  (Almloef) done
Projecting the Hessian                  .... done
Forming the augmented Hessian           .... done
Diagonalizing the augmented Hessian     .... done
Last element of RFO vector              ....  0.818536298
Lowest eigenvalues of augmented Hessian:
 -0.620445978  0.010497447  0.010566833  0.010913803  0.026866487
Length of the computed step             ....  0.701807375
Warning: the length of the step is outside the trust region - taking restricted step instead
The input lambda is                     ....     0.009497
   iter:   5  x=   -2.091339  g=    0.131404 f(x)=     0.060117
   iter:  10  x=   -2.301627  g=    0.060715 f(x)=     0.000000
The output lambda is                    ....    -2.301627 (10 iterations)
The final length of the internal step   ....  0.300000000
Converting the step to Cartesian space:
 Initial RMS(Int)=    0.0493196962
Transforming coordinates:
 Iter   0:  RMS(Cart)=    0.1020952877 RMS(Int)=    2.0664865112
done
Storing new coordinates                 .... done

                                .--------------------.
          ----------------------|Geometry convergence|-------------------------
          Item                value                   Tolerance       Converged
          ---------------------------------------------------------------------
          RMS gradient        0.1472048501            0.0001000000      NO
          MAX gradient        0.6607321739            0.0003000000      NO
          RMS step            0.0493196962            0.0020000000      NO
          MAX step            0.2184005434            0.0040000000      NO
          -------------------------------------------------------------------------
          ........................................................
          Max(Bonds)      0.1156      Max(Angles)    2.61
          Max(Dihed)        0.00      Max(Improp)    0.00
          ---------------------------------------------------------------------

    ---------------------------------------------------------------------------
                         Redundant Internal Coordinates
                            (Angstroem and degrees)

        Definition                    Value    dE/dq     Step     New-Value
    ----------------------------------------------------------------------------
     1. B(C   1,C   0)                1.5300 -0.313809  0.0621    1.5921   
     2. B(C   2,C   1)                1.3500 -0.660732  0.1156    1.4656   
     3. B(Cl  3,C   2)                1.5300 -0.251812  0.0424    1.5724   
     4. B(Cl  4,C   0)                1.4700 -0.325681  0.0515    1.5215   
     5. B(H   5,C   0)                0.9473 -0.117825  0.0214    0.9687   
     6. B(H   6,C   0)                0.9473 -0.117825  0.0214    0.9687   
     7. B(H   7,C   1)                0.9473 -0.058914  0.0107    0.9580   
     8. B(H   8,C   1)                0.9473 -0.058914  0.0107    0.9580   
     9. B(H   9,C   2)                0.9492 -0.073772  0.0134    0.9626   
    10. B(H  10,C   2)                0.9492 -0.073772  0.0134    0.9626   
    11. A(C   1,C   0,H   5)           79.05 -0.014447    0.31     79.36   
    12. A(C   1,C   0,H   6)           79.05 -0.014447    0.31     79.36   
    13. A(H   5,C   0,H   6)          158.09 -0.028894    0.62    158.71   
    14. A(Cl  4,C   0,H   5)          100.95  0.014447   -0.31    100.64   
    15. A(Cl  4,C   0,H   6)          100.95  0.014447   -0.31    100.64   
    16. A(C   2,C   1,H   7)           79.05 -0.060653    1.31     80.35   
    17. A(C   0,C   1,H   7)          100.95  0.060653   -1.31     99.65   
    18. A(H   7,C   1,H   8)          158.09 -0.121307    2.61    160.70   
    19. A(C   2,C   1,H   8)           79.05 -0.060653    1.31     80.35   
    20. A(C   0,C   1,H   8)          100.95  0.060653   -1.31     99.65   
    21. A(Cl  3,C   2,H  10)          101.55  0.050683   -1.08    100.46   
    22. A(C   1,C   2,H  10)           78.45 -0.050683    1.08     79.54   
    23. A(Cl  3,C   2,H   9)          101.55  0.050683   -1.08    100.46   
    24. A(H   9,C   2,H  10)          156.91 -0.101366    2.17    159.07   
    25. A(C   1,C   2,H   9)           78.45 -0.050683    1.08     79.54   
    26. D(H   7,C   1,C   0,H   6)    180.00 -0.000000   -0.00    180.00   
    27. D(H   8,C   1,C   0,H   6)      0.00 -0.000000   -0.00     -0.00   
    28. D(H   7,C   1,C   0,H   5)      0.00 -0.000000    0.00      0.00   
    29. D(H   8,C   1,C   0,H   5)    180.00  0.000000    0.00    180.00   
    30. D(H  10,C   2,C   1,H   8)      0.00  0.000000   -0.00     -0.00   
    31. D(H  10,C   2,C   0,H   5)    180.00 -0.000000    0.00    180.00   
    32. D(H   9,C   2,C   0,H   6)    180.00  0.000000   -0.00    180.00   
    33. D(H   9,C   2,C   1,H   8)    180.00  0.000000    0.00    180.00   
    34. D(H   9,C   2,C   0,H   5)      0.00 -0.000000    0.00      0.00   
    35. D(H  10,C   2,C   1,H   7)    180.00 -0.000000    0.00    180.00   
    36. D(H   9,C   2,C   1,H   7)      0.00 -0.000000    0.00      0.00   
    37. D(H  10,C   2,C   0,H   6)      0.00  0.000000   -0.00     -0.00   
    ----------------------------------------------------------------------------

Geometry step timings:
Preparation and reading OPT file:      0.000 s ( 2.238 %)
Internal coordinates            :      0.000 s ( 2.065 %)
B/P matrices and projection     :      0.000 s (24.613 %)
Hessian update/contruction      :      0.000 s (11.876 %)
Making the step                 :      0.000 s (33.219 %)
Converting the step to Cartesian:      0.000 s ( 3.787 %)
Storing new data                :      0.000 s ( 2.410 %)
Checking convergence            :      0.000 s ( 2.238 %)
Final printing                  :      0.000 s (17.556 %)
Total time                      :      0.001 s

Time for energy+gradient        :      0.018 s
Time for complete geometry iter :      0.019 s

         *************************************************************
         *                GEOMETRY OPTIMIZATION CYCLE   2            *
         *************************************************************
---------------------------------
CARTESIAN COORDINATES (ANGSTROEM)
---------------------------------
  C    -0.079736    0.000000    0.000000
  C     1.512338   -0.000000   -0.000000
  C     2.977910    0.000000    0.000000
  Cl    4.550349    0.000000    0.000000
  Cl   -1.601235    0.000000    0.000000
  H     0.099193    0.952017   -0.000000
  H     0.099193   -0.952017   -0.000000
  H     1.672897    0.944422   -0.000000
  H     1.672897   -0.944422   -0.000000
  H     2.803098    0.946640    0.000000
  H     2.803098   -0.946640    0.000000

----------------------------
CARTESIAN COORDINATES (A.U.)
----------------------------
  NO LB    ZA    FRAG    MASS        X           Y           Z
   0 C   6.0000    1    12.011   -0.150680    0.000000    0.000000
   1 C   6.0000    1    12.011    2.857904   -0.000000   -0.000000
   2 C   6.0000    1    12.011    5.627435    0.000000    0.000000
   3 Cl 17.0000    1    35.453    8.598914    0.000000    0.000000
   4 Cl 17.0000    1    35.453   -3.025895    0.000000    0.000000
   5 H   1.0000    1     1.008    0.187447    1.799051   -0.000000
   6 H   1.0000    1     1.008    0.187447   -1.799051   -0.000000
   7 H   1.0000    1     1.008    3.161316    1.784698   -0.000000
   8 H   1.0000    1     1.008    3.161316   -1.784698   -0.000000
   9 H   1.0000    1     1.008    5.297087    1.788890    0.000000
  10 H   1.0000    1     1.008    5.297087   -1.788890    0.000000

      -----------------------------------------------------------      
     |                   =====================                   |     
     |                           x T B                           |     
     |                   =====================                   |     
     |                         S. Grimme                         |     
     |          Mulliken Center for Theoretical Chemistry        |     
     |                    University of Bonn                     |     
      -----------------------------------------------------------      

   * xtb version 6.7.1 (edcfbbe) compiled by 'albert@albert-system' on 2024-07-22

   xtb is free software: you can redistribute it and/or modify it under
   the terms of the GNU Lesser General Public License as published by
   the Free Software Foundation, either version 3 of the License, or
   (at your option) any later version.
   
   xtb is distributed in the hope that it will be useful,
   but WITHOUT ANY WARRANTY; without even the implied warranty of
   MERCHANTABILITY or FITNESS FOR A PARTICULAR PURPOSE.  See the
   GNU Lesser General Public License for more details.
   
   Cite this work as:
   * C. Bannwarth, E. Caldeweyher, S. Ehlert, A. Hansen, P. Pracht,
     J. Seibert, S. Spicher, S. Grimme, WIREs Comput. Mol. Sci., 2020, 11,
     e01493. DOI: 10.1002/wcms.1493
   
   for GFN2-xTB:
   * C. Bannwarth, S. Ehlert and S. Grimme., J. Chem. Theory Comput., 2019,
     15, 1652-1671. DOI: 10.1021/acs.jctc.8b01176
   for GFN1-xTB:
   * S. Grimme, C. Bannwarth, P. Shushkov, J. Chem. Theory Comput., 2017,
     13, 1989-2009. DOI: 10.1021/acs.jctc.7b00118
   for GFN0-xTB:
   * P. Pracht, E. Caldeweyher, S. Ehlert, S. Grimme, ChemRxiv, 2019, preprint.
     DOI: 10.26434/chemrxiv.8326202.v1
   for GFN-FF:
   * S. Spicher and S. Grimme, Angew. Chem. Int. Ed., 2020, 59, 15665-15673.
     DOI: 10.1002/anie.202004239
   
   for ALPB and GBSA implicit solvation:
   * S. Ehlert, M. Stahn, S. Spicher, S. Grimme, J. Chem. Theory Comput.,
     2021, 17, 4250-4261. DOI: 10.1021/acs.jctc.1c00471
   
   for ddCOSMO and CPCM-X implicit solvation:
   * M. Stahn, S. Ehlert, S. Grimme, J. Phys. Chem. A,
     2023, XX, XXXX-XXXX. DOI: 10.1021/acs.jpca.3c04382
   
   for DFT-D4:
   * E. Caldeweyher, C. Bannwarth and S. Grimme, J. Chem. Phys., 2017,
     147, 034112. DOI: 10.1063/1.4993215
   * E. Caldeweyher, S. Ehlert, A. Hansen, H. Neugebauer, S. Spicher,
     C. Bannwarth and S. Grimme, J. Chem. Phys., 2019, 150, 154122.
     DOI: 10.1063/1.5090222
   * E. Caldeweyher, J.-M. Mewes, S. Ehlert and S. Grimme, Phys. Chem. Chem. Phys.
     2020, 22, 8499-8512. DOI: 10.1039/D0CP00502A
   
   for sTDA-xTB:
   * S. Grimme and C. Bannwarth, J. Chem. Phys., 2016, 145, 054103.
     DOI: 10.1063/1.4959605
   
   in the mass-spec context:
   * V. Asgeirsson, C. Bauer and S. Grimme, Chem. Sci., 2017, 8, 4879.
     DOI: 10.1039/c7sc00601b
   * J. Koopman and S. Grimme, ACS Omega 2019, 4, 12, 15120-15133.
     DOI: 10.1021/acsomega.9b02011
   
   for metadynamics refer to:
   * S. Grimme, J. Chem. Theory Comput., 2019, 155, 2847-2862
     DOI: 10.1021/acs.jctc.9b00143
   
   for SPH calculations refer to:
   * S. Spicher and S. Grimme, J. Chem. Theory Comput., 2021, 17, 1701-1714
     DOI: 10.1021/acs.jctc.0c01306
   
   for ONIOM refer to:
   * C. Plett, A. Katbashev, S. Ehlert, S. Grimme, M. Bursch,
     Phys. Chem. Chem. Phys., 2023, 25, 17860-17868. DOI: 10.1039/D3CP02178E
   
   for DIPRO refer to:
   * J. Kohn, N. Gildemeister, S. Grimme, D. Fazzi, A. Hansen,
     J. Chem. Phys., 2023, just accepted.
   
   for PTB refer to:
   * S. Grimme, M. Mueller, A. Hansen, J. Chem. Phys., 2023, 158, 124111.
     DOI: 10.1063/5.0137838
   
   with help from (in alphabetical order)
   P. Atkinson, C. Bannwarth, F. Bohle, G. Brandenburg, E. Caldeweyher
   M. Checinski, S. Dohm, S. Ehlert, S. Ehrlich, I. Gerasimov, C. Hölzer
   A. Katbashev, J. Kohn, J. Koopman, C. Lavigne, S. Lehtola, F. März, M. Müller,
   F. Musil, H. Neugebauer, J. Pisarek, C. Plett, P. Pracht, F. Pultar,
   J. Seibert, P. Shushkov, S. Spicher, M. Stahn, M. Steiner, T. Strunk,
   J. Stückrath, T. Rose, and J. Unsleber
   
 * started run on 2025/06/22 at 13:54:26.249     
   ID    Z sym.   atoms
    1    6 C      1-3
    2   17 Cl     4, 5
    3    1 H      6-11

           -------------------------------------------------
          |                Calculation Setup                |
           -------------------------------------------------

          program call               : /Data/Software/orca/orca_6_1_0_linux_x86-64_shared_openmpi418_avx2/otool_xtb 1,3-dichloropropane_XTB.xyz --grad -c 0 -u 0 -P 16 --namespace 1,3-dichloropropane --input 1,3-dichloropropane_XTB.input.tmp --acc 0.200000
          calculation namespace      : 1,3-dichloropropane
          coordinate file            : 1,3-dichloropropane_XTB.xyz
          omp threads                :                    16


           -------------------------------------------------
          |                 G F N 2 - x T B                 |
           -------------------------------------------------

        Reference                      10.1021/acs.jctc.8b01176
      * Hamiltonian:
        H0-scaling (s, p, d)           1.850000    2.230000    2.230000
        zeta-weighting                 0.500000
      * Dispersion:
        s8                             2.700000
        a1                             0.520000
        a2                             5.000000
        s9                             5.000000
      * Repulsion:
        kExp                           1.500000    1.000000
        rExp                           1.000000
      * Coulomb:
        alpha                          2.000000
        third order                    shell-resolved
        anisotropic                    true
        a3                             3.000000
        a5                             4.000000
        cn-shift                       1.200000
        cn-exp                         4.000000
        max-rad                        5.000000

q/qsh data taken from xtbrestart
CAMM data taken from xtbrestart

          ...................................................
          :                      SETUP                      :
          :.................................................:
          :  # basis functions                  38          :
          :  # atomic orbitals                  36          :
          :  # shells                           18          :
          :  # electrons                        32          :
          :  max. iterations                   250          :
          :  Hamiltonian                  GFN2-xTB          :
          :  restarted?                       true          :
          :  GBSA solvation                  false          :
          :  PC potential                    false          :
          :  electronic temp.          300.0000000     K    :
          :  accuracy                    0.2000000          :
          :  -> integral cutoff          0.3198970E+02      :
          :  -> integral neglect         0.2000000E-08      :
          :  -> SCF convergence          0.2000000E-06 Eh   :
          :  -> wf. convergence          0.2000000E-04 e    :
          :  Broyden damping             0.4000000          :
          :  net charge                          0          :
          :  unpaired electrons                  0          :
          ...................................................

 iter      E             dE          RMSdq      gap      omega  full diag
   1    -18.1638346 -0.181638E+02  0.140E+00    2.04       0.0  T
   2    -18.1340761  0.297585E-01  0.230E+00    2.24       1.0  T
   3    -18.1766256 -0.425494E-01  0.669E-01    2.08       1.0  T
   4    -18.1768143 -0.188734E-03  0.357E-01    2.04       1.0  T
   5    -18.1772226 -0.408251E-03  0.204E-01    2.08       1.0  T
   6    -18.1773658 -0.143234E-03  0.121E-01    2.07       1.0  T
   7    -18.1773983 -0.325568E-04  0.984E-02    2.06       1.0  T
   8    -18.1774495 -0.511652E-04  0.228E-02    2.07       1.3  T
   9    -18.1774519 -0.233989E-05  0.108E-02    2.07       2.8  T
  10    -18.1774523 -0.443647E-06  0.210E-03    2.07      14.4  T
  11    -18.1774523 -0.151987E-07  0.105E-03    2.07      28.6  T
  12    -18.1774523 -0.574756E-08  0.484E-04    2.07      62.3  T
  13    -18.1774523 -0.528338E-09  0.361E-04    2.07      83.5  T
  14    -18.1774523 -0.836117E-09  0.107E-04    2.07     281.5  T
  15    -18.1774523 -0.597993E-10  0.119E-05    2.07    2536.7  T

   *** convergence criteria satisfied after 15 iterations ***

         #    Occupation            Energy/Eh            Energy/eV
      -------------------------------------------------------------
         1        2.0000           -1.0746826             -29.2436
       ...           ...                  ...                  ...
        10        2.0000           -0.4853442             -13.2069
        11        2.0000           -0.4730269             -12.8717
        12        2.0000           -0.4228526             -11.5064
        13        2.0000           -0.4126207             -11.2280
        14        2.0000           -0.3858388             -10.4992
        15        2.0000           -0.3785695             -10.3014
        16        2.0000           -0.3208063              -8.7296 (HOMO)
        17                         -0.2447748              -6.6607 (LUMO)
        18                         -0.2118164              -5.7638
        19                         -0.1196648              -3.2562
        20                         -0.0683896              -1.8610
        21                         -0.0475766              -1.2946
       ...                                ...                  ...
        36                          1.2601209              34.2896
      -------------------------------------------------------------
                  HL-Gap            0.0760315 Eh            2.0689 eV
             Fermi-level           -0.2827906 Eh           -7.6951 eV

 SCC (total)                   0 d,  0 h,  0 min,  0.009 sec
 SCC setup                      ...        0 min,  0.000 sec (  0.929%)
 Dispersion                     ...        0 min,  0.000 sec (  0.284%)
 classical contributions        ...        0 min,  0.000 sec (  0.086%)
 integral evaluation            ...        0 min,  0.007 sec ( 72.289%)
 iterations                     ...        0 min,  0.002 sec ( 22.211%)
 molecular gradient             ...        0 min,  0.000 sec (  3.400%)
 printout                       ...        0 min,  0.000 sec (  0.664%)

         :::::::::::::::::::::::::::::::::::::::::::::::::::::
         ::                     SUMMARY                     ::
         :::::::::::::::::::::::::::::::::::::::::::::::::::::
         :: total energy             -17.828392366899 Eh    ::
         :: gradient norm              0.413177061100 Eh/a0 ::
         :: HOMO-LUMO gap              2.068922518435 eV    ::
         ::.................................................::
         :: SCC energy               -18.177463701932 Eh    ::
         :: -> isotropic ES            0.016758602475 Eh    ::
         :: -> anisotropic ES          0.019436339603 Eh    ::
         :: -> anisotropic XC         -0.015434762460 Eh    ::
         :: -> dispersion             -0.005739429229 Eh    ::
         :: repulsion energy           0.349071335033 Eh    ::
         :: add. restraining           0.000000000000 Eh    ::
         :: total charge               0.000000000000 e     ::
         :::::::::::::::::::::::::::::::::::::::::::::::::::::


Property printout bound to 'properties.out'

           -------------------------------------------------
          | TOTAL ENERGY              -17.828392366899 Eh   |
          | GRADIENT NORM               0.413177061100 Eh/α |
          | HOMO-LUMO GAP               2.068922518435 eV   |
           -------------------------------------------------

------------------------------------------------------------------------
 * finished run on 2025/06/22 at 13:54:26.262     
------------------------------------------------------------------------
 total:
 * wall-time:     0 d,  0 h,  0 min,  0.013 sec
 *  cpu-time:     0 d,  0 h,  0 min,  0.179 sec
 * ratio c/w:    13.722 speedup
 SCF:
 * wall-time:     0 d,  0 h,  0 min,  0.010 sec
 *  cpu-time:     0 d,  0 h,  0 min,  0.139 sec
 * ratio c/w:    14.538 speedup


-------------------------   --------------------
FINAL SINGLE POINT ENERGY       -17.828392366900
-------------------------   --------------------


-------------
DIPOLE MOMENT
-------------
                                X             Y             Z
Total Dipole Moment    :      0.46200      -0.00000      -0.00000
                        -----------------------------------------
Magnitude (a.u.)       :      0.46200
Magnitude (Debye)      :      1.17431


------------------
CARTESIAN GRADIENT
------------------

   1   C   :   -0.028902380    0.000000000    0.000000000
   2   C   :    0.070335649    0.000000000   -0.000000000
   3   C   :   -0.121339925    0.000000000   -0.000000000
   4   Cl  :   -0.190711204   -0.000000000    0.000000000
   5   Cl  :    0.229931777   -0.000000000   -0.000000000
   6   H   :    0.001478490   -0.089212274   -0.000000000
   7   H   :    0.001478490    0.089212274   -0.000000000
   8   H   :    0.080800299   -0.071127970    0.000000000
   9   H   :    0.080800299    0.071127970    0.000000000
  10   H   :   -0.061935747   -0.084262126   -0.000000000
  11   H   :   -0.061935747    0.084262126   -0.000000000

Difference to translation invariance:
           :    0.0000000000    0.0000000000    0.0000000000

Difference to rotation invariance:
           :   -0.0000000000    0.0000000000   -0.0000000000

Norm of the Cartesian gradient     ...    0.4131770611
RMS gradient                       ...    0.0719248943
MAX gradient                       ...    0.2299317766
------------------------------------------------------------------------------
                         ORCA GEOMETRY RELAXATION STEP
------------------------------------------------------------------------------

Reading the OPT-File                    .... done
Getting information on internals        .... done
Copying old internal coords+grads       .... done
Making the new internal coordinates     .... (2022 redundants) done
Validating the new internal coordinates .... (2022 redundants) done
Calculating the B-matrix                .... done
Calculating the G,G- and P matrices     .... done
Transforming gradient to internals      .... done
Projecting the internal gradient        .... done
Number of atoms                         ....  11
Number of internal coordinates          ....  37
Current Energy                          ....   -17.828392367 Eh
Current gradient norm                   ....     0.413177061 Eh/bohr
Maximum allowed component of the step   ....  0.300
Current trust radius                    ....  0.300
Updating the Hessian (BFGS)             .... done
Forming the augmented Hessian           .... done
Diagonalizing the augmented Hessian     .... done
Last element of RFO vector              ....  0.887969138
Lowest eigenvalues of augmented Hessian:
 -0.312899269  0.010497447  0.010566833  0.010913803  0.026866487
Length of the computed step             ....  0.517926835
Warning: the length of the step is outside the trust region - taking restricted step instead
The input lambda is                     ....     0.009497
   iter:   5  x=   -1.149636  g=    0.091863 f(x)=     0.001694
The output lambda is                    ....    -1.149898 (8 iterations)
The final length of the internal step   ....  0.300000000
Converting the step to Cartesian space:
 Initial RMS(Int)=    0.0493196962
Transforming coordinates:
 Iter   0:  RMS(Cart)=    0.0954914691 RMS(Int)=    1.0341240076
done
Storing new coordinates                 .... done
The predicted energy change is          ....    -0.143384986
Previously predicted energy change      ....    -0.237588000
Actually observed energy change         ....    -0.223783200
Ratio of predicted to observed change   ....     0.941896053
New trust radius                        ....     0.450000000

                                .--------------------.
          ----------------------|Geometry convergence|-------------------------
          Item                value                   Tolerance       Converged
          ---------------------------------------------------------------------
          Energy change      -0.2237831998            0.0000050000      NO
          RMS gradient        0.1009023342            0.0001000000      NO
          MAX gradient        0.4359226242            0.0003000000      NO
          RMS step            0.0493196962            0.0020000000      NO
          MAX step            0.2027425429            0.0040000000      NO
          -------------------------------------------------------------------------
          ........................................................
          Max(Bonds)      0.1073      Max(Angles)    2.38
          Max(Dihed)        0.00      Max(Improp)    0.00
          ---------------------------------------------------------------------

    ---------------------------------------------------------------------------
                         Redundant Internal Coordinates
                            (Angstroem and degrees)

        Definition                    Value    dE/dq     Step     New-Value
    ----------------------------------------------------------------------------
     1. B(C   1,C   0)                1.5921 -0.203986  0.0497    1.6418   
     2. B(C   2,C   1)                1.4656 -0.435923  0.1073    1.5729   
     3. B(Cl  3,C   2)                1.5724 -0.190711  0.0532    1.6256   
     4. B(Cl  4,C   0)                1.5215 -0.229932  0.0580    1.5795   
     5. B(H   5,C   0)                0.9687 -0.087404  0.0250    0.9937   
     6. B(H   6,C   0)                0.9687 -0.087404  0.0250    0.9937   
     7. B(H   7,C   1)                0.9580 -0.056579  0.0201    0.9781   
     8. B(H   8,C   1)                0.9580 -0.056579  0.0201    0.9781   
     9. B(H   9,C   2)                0.9626 -0.071614  0.0256    0.9883   
    10. B(H  10,C   2)                0.9626 -0.071614  0.0256    0.9883   
    11. A(C   1,C   0,H   5)           79.36 -0.008206    0.16     79.52   
    12. A(C   1,C   0,H   6)           79.36 -0.008206    0.16     79.52   
    13. A(H   5,C   0,H   6)          158.71 -0.016412    0.32    159.03   
    14. A(Cl  4,C   0,H   5)          100.64  0.008206   -0.16    100.48   
    15. A(Cl  4,C   0,H   6)          100.64  0.008206   -0.16    100.48   
    16. A(C   2,C   1,H   7)           80.35 -0.041446    1.19     81.54   
    17. A(C   0,C   1,H   7)           99.65  0.041446   -1.19     98.46   
    18. A(H   7,C   1,H   8)          160.70 -0.082893    2.38    163.08   
    19. A(C   2,C   1,H   8)           80.35 -0.041446    1.19     81.54   
    20. A(C   0,C   1,H   8)           99.65  0.041446   -1.19     98.46   
    21. A(Cl  3,C   2,H  10)          100.46  0.034658   -0.99     99.47   
    22. A(C   1,C   2,H  10)           79.54 -0.034658    0.99     80.53   
    23. A(Cl  3,C   2,H   9)          100.46  0.034658   -0.99     99.47   
    24. A(H   9,C   2,H  10)          159.07 -0.069316    1.99    161.06   
    25. A(C   1,C   2,H   9)           79.54 -0.034658    0.99     80.53   
    26. D(H   7,C   1,C   0,H   6)    180.00  0.000000   -0.00    180.00   
    27. D(H   8,C   1,C   0,H   6)     -0.00 -0.000000    0.00     -0.00   
    28. D(H   7,C   1,C   0,H   5)      0.00  0.000000   -0.00      0.00   
    29. D(H   8,C   1,C   0,H   5)   -180.00 -0.000000    0.00   -180.00   
    30. D(H  10,C   2,C   1,H   8)     -0.00 -0.000000    0.00      0.00   
    31. D(H  10,C   2,C   0,H   5)   -180.00  0.000000   -0.00   -180.00   
    32. D(H   9,C   2,C   0,H   6)    180.00 -0.000000    0.00    180.00   
    33. D(H   9,C   2,C   1,H   8)   -180.00 -0.000000    0.00   -180.00   
    34. D(H   9,C   2,C   0,H   5)      0.00  0.000000   -0.00      0.00   
    35. D(H  10,C   2,C   1,H   7)   -180.00  0.000000   -0.00   -180.00   
    36. D(H   9,C   2,C   1,H   7)      0.00  0.000000   -0.00     -0.00   
    37. D(H  10,C   2,C   0,H   6)     -0.00 -0.000000    0.00     -0.00   
    ----------------------------------------------------------------------------

Geometry step timings:
Preparation and reading OPT file:      0.000 s ( 1.773 %)
Internal coordinates            :      0.000 s ( 1.950 %)
B/P matrices and projection     :      0.000 s (24.113 %)
Hessian update/contruction      :      0.000 s (17.376 %)
Making the step                 :      0.000 s (29.965 %)
Converting the step to Cartesian:      0.000 s ( 3.014 %)
Storing new data                :      0.000 s ( 2.128 %)
Checking convergence            :      0.000 s ( 3.014 %)
Final printing                  :      0.000 s (16.667 %)
Total time                      :      0.001 s

Time for energy+gradient        :      0.017 s
Time for complete geometry iter :      0.017 s

         *************************************************************
         *                GEOMETRY OPTIMIZATION CYCLE   3            *
         *************************************************************
---------------------------------
CARTESIAN COORDINATES (ANGSTROEM)
---------------------------------
  C    -0.149464   -0.000000   -0.000000
  C     1.492290   -0.000000    0.000000
  C     3.065150    0.000000   -0.000000
  Cl    4.690788    0.000000   -0.000000
  Cl   -1.728973    0.000000   -0.000000
  H     0.031350    0.977101   -0.000000
  H     0.031350   -0.977101   -0.000000
  H     1.636176    0.967415    0.000000
  H     1.636176   -0.967415    0.000000
  H     2.902578    0.974819   -0.000000
  H     2.902578   -0.974819   -0.000000

----------------------------
CARTESIAN COORDINATES (A.U.)
----------------------------
  NO LB    ZA    FRAG    MASS        X           Y           Z
   0 C   6.0000    1    12.011   -0.282446   -0.000000   -0.000000
   1 C   6.0000    1    12.011    2.820020   -0.000000    0.000000
   2 C   6.0000    1    12.011    5.792293    0.000000   -0.000000
   3 Cl 17.0000    1    35.453    8.864304    0.000000   -0.000000
   4 Cl 17.0000    1    35.453   -3.267286    0.000000   -0.000000
   5 H   1.0000    1     1.008    0.059244    1.846452   -0.000000
   6 H   1.0000    1     1.008    0.059244   -1.846452   -0.000000
   7 H   1.0000    1     1.008    3.091924    1.828149    0.000000
   8 H   1.0000    1     1.008    3.091924   -1.828149    0.000000
   9 H   1.0000    1     1.008    5.485078    1.842140   -0.000000
  10 H   1.0000    1     1.008    5.485078   -1.842140   -0.000000

      -----------------------------------------------------------      
     |                   =====================                   |     
     |                           x T B                           |     
     |                   =====================                   |     
     |                         S. Grimme                         |     
     |          Mulliken Center for Theoretical Chemistry        |     
     |                    University of Bonn                     |     
      -----------------------------------------------------------      

   * xtb version 6.7.1 (edcfbbe) compiled by 'albert@albert-system' on 2024-07-22

   xtb is free software: you can redistribute it and/or modify it under
   the terms of the GNU Lesser General Public License as published by
   the Free Software Foundation, either version 3 of the License, or
   (at your option) any later version.
   
   xtb is distributed in the hope that it will be useful,
   but WITHOUT ANY WARRANTY; without even the implied warranty of
   MERCHANTABILITY or FITNESS FOR A PARTICULAR PURPOSE.  See the
   GNU Lesser General Public License for more details.
   
   Cite this work as:
   * C. Bannwarth, E. Caldeweyher, S. Ehlert, A. Hansen, P. Pracht,
     J. Seibert, S. Spicher, S. Grimme, WIREs Comput. Mol. Sci., 2020, 11,
     e01493. DOI: 10.1002/wcms.1493
   
   for GFN2-xTB:
   * C. Bannwarth, S. Ehlert and S. Grimme., J. Chem. Theory Comput., 2019,
     15, 1652-1671. DOI: 10.1021/acs.jctc.8b01176
   for GFN1-xTB:
   * S. Grimme, C. Bannwarth, P. Shushkov, J. Chem. Theory Comput., 2017,
     13, 1989-2009. DOI: 10.1021/acs.jctc.7b00118
   for GFN0-xTB:
   * P. Pracht, E. Caldeweyher, S. Ehlert, S. Grimme, ChemRxiv, 2019, preprint.
     DOI: 10.26434/chemrxiv.8326202.v1
   for GFN-FF:
   * S. Spicher and S. Grimme, Angew. Chem. Int. Ed., 2020, 59, 15665-15673.
     DOI: 10.1002/anie.202004239
   
   for ALPB and GBSA implicit solvation:
   * S. Ehlert, M. Stahn, S. Spicher, S. Grimme, J. Chem. Theory Comput.,
     2021, 17, 4250-4261. DOI: 10.1021/acs.jctc.1c00471
   
   for ddCOSMO and CPCM-X implicit solvation:
   * M. Stahn, S. Ehlert, S. Grimme, J. Phys. Chem. A,
     2023, XX, XXXX-XXXX. DOI: 10.1021/acs.jpca.3c04382
   
   for DFT-D4:
   * E. Caldeweyher, C. Bannwarth and S. Grimme, J. Chem. Phys., 2017,
     147, 034112. DOI: 10.1063/1.4993215
   * E. Caldeweyher, S. Ehlert, A. Hansen, H. Neugebauer, S. Spicher,
     C. Bannwarth and S. Grimme, J. Chem. Phys., 2019, 150, 154122.
     DOI: 10.1063/1.5090222
   * E. Caldeweyher, J.-M. Mewes, S. Ehlert and S. Grimme, Phys. Chem. Chem. Phys.
     2020, 22, 8499-8512. DOI: 10.1039/D0CP00502A
   
   for sTDA-xTB:
   * S. Grimme and C. Bannwarth, J. Chem. Phys., 2016, 145, 054103.
     DOI: 10.1063/1.4959605
   
   in the mass-spec context:
   * V. Asgeirsson, C. Bauer and S. Grimme, Chem. Sci., 2017, 8, 4879.
     DOI: 10.1039/c7sc00601b
   * J. Koopman and S. Grimme, ACS Omega 2019, 4, 12, 15120-15133.
     DOI: 10.1021/acsomega.9b02011
   
   for metadynamics refer to:
   * S. Grimme, J. Chem. Theory Comput., 2019, 155, 2847-2862
     DOI: 10.1021/acs.jctc.9b00143
   
   for SPH calculations refer to:
   * S. Spicher and S. Grimme, J. Chem. Theory Comput., 2021, 17, 1701-1714
     DOI: 10.1021/acs.jctc.0c01306
   
   for ONIOM refer to:
   * C. Plett, A. Katbashev, S. Ehlert, S. Grimme, M. Bursch,
     Phys. Chem. Chem. Phys., 2023, 25, 17860-17868. DOI: 10.1039/D3CP02178E
   
   for DIPRO refer to:
   * J. Kohn, N. Gildemeister, S. Grimme, D. Fazzi, A. Hansen,
     J. Chem. Phys., 2023, just accepted.
   
   for PTB refer to:
   * S. Grimme, M. Mueller, A. Hansen, J. Chem. Phys., 2023, 158, 124111.
     DOI: 10.1063/5.0137838
   
   with help from (in alphabetical order)
   P. Atkinson, C. Bannwarth, F. Bohle, G. Brandenburg, E. Caldeweyher
   M. Checinski, S. Dohm, S. Ehlert, S. Ehrlich, I. Gerasimov, C. Hölzer
   A. Katbashev, J. Kohn, J. Koopman, C. Lavigne, S. Lehtola, F. März, M. Müller,
   F. Musil, H. Neugebauer, J. Pisarek, C. Plett, P. Pracht, F. Pultar,
   J. Seibert, P. Shushkov, S. Spicher, M. Stahn, M. Steiner, T. Strunk,
   J. Stückrath, T. Rose, and J. Unsleber
   
 * started run on 2025/06/22 at 13:54:26.266     
   ID    Z sym.   atoms
    1    6 C      1-3
    2   17 Cl     4, 5
    3    1 H      6-11

           -------------------------------------------------
          |                Calculation Setup                |
           -------------------------------------------------

          program call               : /Data/Software/orca/orca_6_1_0_linux_x86-64_shared_openmpi418_avx2/otool_xtb 1,3-dichloropropane_XTB.xyz --grad -c 0 -u 0 -P 16 --namespace 1,3-dichloropropane --input 1,3-dichloropropane_XTB.input.tmp --acc 0.200000
          calculation namespace      : 1,3-dichloropropane
          coordinate file            : 1,3-dichloropropane_XTB.xyz
          omp threads                :                    16


           -------------------------------------------------
          |                 G F N 2 - x T B                 |
           -------------------------------------------------

        Reference                      10.1021/acs.jctc.8b01176
      * Hamiltonian:
        H0-scaling (s, p, d)           1.850000    2.230000    2.230000
        zeta-weighting                 0.500000
      * Dispersion:
        s8                             2.700000
        a1                             0.520000
        a2                             5.000000
        s9                             5.000000
      * Repulsion:
        kExp                           1.500000    1.000000
        rExp                           1.000000
      * Coulomb:
        alpha                          2.000000
        third order                    shell-resolved
        anisotropic                    true
        a3                             3.000000
        a5                             4.000000
        cn-shift                       1.200000
        cn-exp                         4.000000
        max-rad                        5.000000

q/qsh data taken from xtbrestart
CAMM data taken from xtbrestart

          ...................................................
          :                      SETUP                      :
          :.................................................:
          :  # basis functions                  38          :
          :  # atomic orbitals                  36          :
          :  # shells                           18          :
          :  # electrons                        32          :
          :  max. iterations                   250          :
          :  Hamiltonian                  GFN2-xTB          :
          :  restarted?                       true          :
          :  GBSA solvation                  false          :
          :  PC potential                    false          :
          :  electronic temp.          300.0000000     K    :
          :  accuracy                    0.2000000          :
          :  -> integral cutoff          0.3198970E+02      :
          :  -> integral neglect         0.2000000E-08      :
          :  -> SCF convergence          0.2000000E-06 Eh   :
          :  -> wf. convergence          0.2000000E-04 e    :
          :  Broyden damping             0.4000000          :
          :  net charge                          0          :
          :  unpaired electrons                  0          :
          ...................................................

 iter      E             dE          RMSdq      gap      omega  full diag
   1    -18.2410635 -0.182411E+02  0.119E+00    1.71       0.0  T
   2    -18.1955125  0.455510E-01  0.251E+00    1.87       1.0  T
   3    -18.2498847 -0.543722E-01  0.681E-01    1.73       1.0  T
   4    -18.2502248 -0.340067E-03  0.386E-01    1.67       1.0  T
   5    -18.2509960 -0.771244E-03  0.170E-01    1.72       1.0  T
   6    -18.2510742 -0.781789E-04  0.126E-01    1.72       1.0  T
   7    -18.2511126 -0.383926E-04  0.101E-01    1.71       1.0  T
   8    -18.2511724 -0.597980E-04  0.241E-02    1.72       1.3  T
   9    -18.2511743 -0.188726E-05  0.147E-02    1.72       2.0  T
  10    -18.2511753 -0.105567E-05  0.207E-03    1.72      14.6  T
  11    -18.2511753 -0.686018E-08  0.905E-04    1.72      33.3  T
  12    -18.2511753 -0.365506E-08  0.488E-04    1.72      61.8  T
  13    -18.2511753 -0.126562E-08  0.260E-04    1.72     116.2  T
  14    -18.2511753 -0.313538E-09  0.126E-04    1.72     239.2  T
  15    -18.2511753 -0.794422E-10  0.737E-06    1.72    4090.4  T

   *** convergence criteria satisfied after 15 iterations ***

         #    Occupation            Energy/Eh            Energy/eV
      -------------------------------------------------------------
         1        2.0000           -1.0653646             -28.9900
       ...           ...                  ...                  ...
        10        2.0000           -0.4815846             -13.1046
        11        2.0000           -0.4671351             -12.7114
        12        2.0000           -0.4149936             -11.2926
        13        2.0000           -0.4144907             -11.2789
        14        2.0000           -0.4012415             -10.9183
        15        2.0000           -0.3956719             -10.7668
        16        2.0000           -0.3244482              -8.8287 (HOMO)
        17                         -0.2613138              -7.1107 (LUMO)
        18                         -0.2351189              -6.3979
        19                         -0.1168586              -3.1799
        20                         -0.0757749              -2.0619
        21                         -0.0585591              -1.5935
       ...                                ...                  ...
        36                          1.0484020              28.5285
      -------------------------------------------------------------
                  HL-Gap            0.0631344 Eh            1.7180 eV
             Fermi-level           -0.2928810 Eh           -7.9697 eV

 SCC (total)                   0 d,  0 h,  0 min,  0.008 sec
 SCC setup                      ...        0 min,  0.000 sec (  0.927%)
 Dispersion                     ...        0 min,  0.000 sec (  0.284%)
 classical contributions        ...        0 min,  0.000 sec (  0.108%)
 integral evaluation            ...        0 min,  0.005 sec ( 63.818%)
 iterations                     ...        0 min,  0.002 sec ( 29.280%)
 molecular gradient             ...        0 min,  0.000 sec (  4.959%)
 printout                       ...        0 min,  0.000 sec (  0.510%)

         :::::::::::::::::::::::::::::::::::::::::::::::::::::
         ::                     SUMMARY                     ::
         :::::::::::::::::::::::::::::::::::::::::::::::::::::
         :: total energy             -17.978607508042 Eh    ::
         :: gradient norm              0.272131284848 Eh/a0 ::
         :: HOMO-LUMO gap              1.717974243940 eV    ::
         ::.................................................::
         :: SCC energy               -18.251190338909 Eh    ::
         :: -> isotropic ES            0.015561567488 Eh    ::
         :: -> anisotropic ES          0.013795923693 Eh    ::
         :: -> anisotropic XC         -0.001348399746 Eh    ::
         :: -> dispersion             -0.005561347358 Eh    ::
         :: repulsion energy           0.272582830866 Eh    ::
         :: add. restraining           0.000000000000 Eh    ::
         :: total charge              -0.000000000000 e     ::
         :::::::::::::::::::::::::::::::::::::::::::::::::::::


Property printout bound to 'properties.out'

           -------------------------------------------------
          | TOTAL ENERGY              -17.978607508042 Eh   |
          | GRADIENT NORM               0.272131284848 Eh/α |
          | HOMO-LUMO GAP               1.717974243940 eV   |
           -------------------------------------------------

------------------------------------------------------------------------
 * finished run on 2025/06/22 at 13:54:26.278     
------------------------------------------------------------------------
 total:
 * wall-time:     0 d,  0 h,  0 min,  0.012 sec
 *  cpu-time:     0 d,  0 h,  0 min,  0.165 sec
 * ratio c/w:    13.784 speedup
 SCF:
 * wall-time:     0 d,  0 h,  0 min,  0.008 sec
 *  cpu-time:     0 d,  0 h,  0 min,  0.126 sec
 * ratio c/w:    14.917 speedup


-------------------------   --------------------
FINAL SINGLE POINT ENERGY       -17.978607508040
-------------------------   --------------------


-------------
DIPOLE MOMENT
-------------
                                X             Y             Z
Total Dipole Moment    :      0.11100       0.00000       0.00000
                        -----------------------------------------
Magnitude (a.u.)       :      0.11100
Magnitude (Debye)      :      0.28214


------------------
CARTESIAN GRADIENT
------------------

   1   C   :   -0.021893738    0.000000000   -0.000000000
   2   C   :    0.043610778    0.000000000    0.000000000
   3   C   :   -0.070517588    0.000000000    0.000000000
   4   Cl  :   -0.131228472   -0.000000000   -0.000000000
   5   Cl  :    0.155027971   -0.000000000   -0.000000000
   6   H   :    0.001943167   -0.058585898    0.000000000
   7   H   :    0.001943167    0.058585898    0.000000000
   8   H   :    0.048411447   -0.048310985   -0.000000000
   9   H   :    0.048411447    0.048310985   -0.000000000
  10   H   :   -0.037854090   -0.056363182    0.000000000
[...]
                        -----------------------------------------
Magnitude (a.u.)       :      1.47852
Magnitude (Debye)      :      3.75811


------------------
CARTESIAN GRADIENT
------------------

   1   C   :    0.000664402   -0.001099815   -0.000179075
   2   C   :    0.001209822    0.001351193   -0.002067238
   3   C   :    0.001109302   -0.000201103   -0.001095568
   4   Cl  :   -0.000762273    0.000120628    0.000324497
   5   Cl  :   -0.000011009   -0.000082340   -0.000219910
   6   H   :   -0.000324174    0.000607414    0.000590901
   7   H   :   -0.000280668   -0.000002837   -0.000332301
   8   H   :   -0.000390002   -0.000023163    0.000160538
   9   H   :   -0.000544929   -0.000569581    0.001805014
  10   H   :   -0.000000328    0.000192134    0.000855540
  11   H   :   -0.000670141   -0.000292530    0.000157603

Difference to translation invariance:
           :    0.0000000000   -0.0000000000    0.0000000000

Difference to rotation invariance:
           :    0.0000000612   -0.0000001080    0.0000000947

Norm of the Cartesian gradient     ...    0.0043441936
RMS gradient                       ...    0.0007562270
MAX gradient                       ...    0.0020672376
------------------------------------------------------------------------------
                         ORCA GEOMETRY RELAXATION STEP
------------------------------------------------------------------------------

Reading the OPT-File                    .... done
Getting information on internals        .... done
Copying old internal coords+grads       .... done
Making the new internal coordinates     .... (2022 redundants) done
Validating the new internal coordinates .... (2022 redundants) done
Calculating the B-matrix                .... done
Calculating the G,G- and P matrices     .... done
Transforming gradient to internals      .... done
Projecting the internal gradient        .... done
Number of atoms                         ....  11
Number of internal coordinates          ....  54
Current Energy                          ....   -18.579154778 Eh
Current gradient norm                   ....     0.004344194 Eh/bohr
Maximum allowed component of the step   ....  0.300
Current trust radius                    ....  0.467
Updating the Hessian (BFGS)             .... done
Forming the augmented Hessian           .... done
Diagonalizing the augmented Hessian     .... done
Last element of RFO vector              ....  0.978684663
Lowest eigenvalues of augmented Hessian:
 -0.000042690  0.000296668  0.003389328  0.020672420  0.021836173
Length of the computed step             ....  0.209841611
The final length of the internal step   ....  0.209841611
Converting the step to Cartesian space:
 Initial RMS(Int)=    0.0285558264
Transforming coordinates:
 Iter   0:  RMS(Cart)=    0.0275584839 RMS(Int)=    0.0285354188
done
Storing new coordinates                 .... done
The predicted energy change is          ....    -0.000022285
Previously predicted energy change      ....    -0.000059356
Actually observed energy change         ....    -0.000072849
Ratio of predicted to observed change   ....     1.227327308
New trust radius                        ....     0.700000000

                                .--------------------.
          ----------------------|Geometry convergence|-------------------------
          Item                value                   Tolerance       Converged
          ---------------------------------------------------------------------
          Energy change      -0.0000728490            0.0000050000      NO
          RMS gradient        0.0004340981            0.0001000000      NO
          MAX gradient        0.0015360445            0.0003000000      NO
          RMS step            0.0285558264            0.0020000000      NO
          MAX step            0.0840659679            0.0040000000      NO
          -------------------------------------------------------------------------
          ........................................................
          Max(Bonds)      0.0154      Max(Angles)    0.38
          Max(Dihed)        4.82      Max(Improp)    0.00
          ---------------------------------------------------------------------

    ---------------------------------------------------------------------------
                         Redundant Internal Coordinates
                            (Angstroem and degrees)

        Definition                    Value    dE/dq     Step     New-Value
    ----------------------------------------------------------------------------
     1. B(C   1,C   0)                1.5231  0.000237  0.0003    1.5234   
     2. B(C   2,C   1)                1.5231 -0.000426 -0.0011    1.5220   
     3. B(Cl  3,C   2)                1.7847 -0.000424  0.0003    1.7851   
     4. B(Cl  4,C   0)                1.7878  0.000179 -0.0009    1.7868   
     5. B(H   5,C   0)                1.0911  0.000742 -0.0001    1.0910   
     6. B(H   6,C   0)                1.0898  0.000012  0.0003    1.0901   
     7. B(H   7,C   2)                2.1550  0.000139 -0.0027    2.1523   
     8. B(H   7,C   1)                1.0908 -0.000235  0.0005    1.0913   
     9. B(H   8,C   1)                1.0973  0.001536 -0.0018    1.0955   
    10. B(H   8,C   2)                2.1313  0.000445 -0.0028    2.1285   
    11. B(H   9,C   1)                2.1582 -0.000303 -0.0003    2.1580   
    12. B(H   9,H   7)                2.5743  0.000162 -0.0154    2.5589   
    13. B(H   9,C   2)                1.0905  0.000706 -0.0005    1.0900   
    14. B(H  10,C   1)                2.1667 -0.000380  0.0015    2.1682   
    15. B(H  10,H   8)                2.5865  0.000086 -0.0121    2.5744   
    16. B(H  10,C   2)                1.0905  0.000555 -0.0007    1.0898   
    17. A(Cl  4,C   0,H   6)          106.69 -0.000246    0.26    106.94   
    18. A(C   1,C   0,Cl  4)          112.48  0.000035    0.04    112.51   
    19. A(C   1,C   0,H   6)          111.51  0.000658   -0.38    111.13   
    20. A(C   1,C   0,H   5)          109.97 -0.000782    0.06    110.03   
    21. A(Cl  4,C   0,H   5)          106.19  0.000232   -0.05    106.14   
    22. A(H   5,C   0,H   6)          109.82  0.000104    0.08    109.90   
    23. A(C   0,C   1,H   7)          109.63  0.000186    0.29    109.91   
    24. A(C   2,C   1,H   7)          109.96  0.000503   -0.14    109.82   
    25. A(H   7,C   1,H   8)          108.06  0.000031   -0.10    107.96   
    26. A(C   0,C   1,H   8)          106.91 -0.000283   -0.00    106.91   
    27. A(C   2,C   1,H   8)          107.74 -0.000219   -0.06    107.68   
    28. A(C   1,C   2,Cl  3)          111.91 -0.001256    0.17    112.08   
    29. A(H   9,C   2,H  10)          109.91  0.000529   -0.12    109.79   
    30. A(Cl  3,C   2,H  10)          107.21  0.000472   -0.07    107.14   
    31. A(Cl  3,C   2,H   9)          106.54  0.000993   -0.08    106.46   
    32. A(C   1,C   2,H  10)          110.90 -0.000313    0.22    111.12   
    33. A(C   1,C   2,H   9)          110.24 -0.000335    0.04    110.28   
    34. D(H   7,C   1,C   0,H   6)    171.43  0.000065   -1.71    169.72   
    35. D(H   7,C   1,C   0,Cl  4)     51.62 -0.000105   -1.76     49.86   
    36. D(H   7,C   1,C   0,H   5)    -66.50  0.000100   -1.78    -68.28   
    37. D(H   8,C   1,C   0,H   6)    -71.68  0.000042   -1.66    -73.34   
    38. D(H   8,C   1,C   0,Cl  4)    168.51 -0.000128   -1.72    166.80   
    39. D(H   8,C   1,C   0,H   5)     50.39  0.000077   -1.74     48.65   
    40. D(Cl  3,C   2,C   0,Cl  4)      4.64  0.000301   -2.59      2.04   
    41. D(H  10,C   2,C   0,Cl  4)   -102.03 -0.000064   -2.69   -104.73   
    42. D(H   9,C   2,C   0,H   6)   -112.07 -0.000072   -3.67   -115.74   
    43. D(H   9,C   2,C   0,H   5)      8.52  0.000058   -4.82      3.70   
    44. D(H  10,C   2,C   1,H   7)   -165.68  0.000250   -1.70   -167.38   
    45. D(H   9,C   2,C   0,Cl  4)    141.32  0.000111   -3.72    137.61   
    46. D(H  10,C   2,C   0,H   5)    125.16 -0.000118   -3.79    121.37   
    47. D(H  10,C   2,C   0,H   6)      4.57 -0.000247   -2.65      1.93   
    48. D(H   9,C   2,C   1,H   7)     72.37  0.000020   -1.65     70.71   
    49. D(Cl  3,C   2,C   0,H   6)    111.25  0.000118   -2.55    108.70   
    50. D(Cl  3,C   2,C   1,H   8)   -163.56 -0.000392   -1.51   -165.07   
    51. D(H   9,C   2,C   1,H   8)    -45.18 -0.000168   -1.52    -46.70   
    52. D(Cl  3,C   2,C   1,H   7)    -46.02 -0.000204   -1.65    -47.66   
    53. D(H  10,C   2,C   1,H   8)     76.78  0.000062   -1.57     75.21   
    54. D(Cl  3,C   2,C   0,H   5)   -128.17  0.000247   -3.69   -131.86   
    ----------------------------------------------------------------------------

Geometry step timings:
Preparation and reading OPT file:      0.000 s ( 1.483 %)
Internal coordinates            :      0.000 s ( 2.471 %)
B/P matrices and projection     :      0.000 s (25.041 %)
Hessian update/contruction      :      0.000 s (15.157 %)
Making the step                 :      0.000 s (27.348 %)
Converting the step to Cartesian:      0.000 s ( 3.460 %)
Storing new data                :      0.000 s ( 2.142 %)
Checking convergence            :      0.000 s ( 2.965 %)
Final printing                  :      0.000 s (19.934 %)
Total time                      :      0.001 s

Time for energy+gradient        :      0.017 s
Time for complete geometry iter :      0.018 s




    ----------------------------------------------------------------------------
                                  WARNING !!!
       The optimization did not converge but reached the maximum number of
       optimization cycles.
       Please check your results very carefully.
    ----------------------------------------------------------------------------


		     ------------------------------
			                   _   
			                  | |  
			  __ _  ___   __ _| |_ 
			 / _` |/ _ \ / _` | __|
			| (_| | (_) | (_| | |_ 
			 \__, |\___/ \__,_|\__|
			 __/ |                
			|___/                 

		      A Global Optimizer Algorithm
		     ------------------------------

Global parameters
-----------------
  GOAT version                               ... default
  Minimum global steps                       ... 3
  Number of base workers                     ... 4
  Split workers by                           ... 2
  Final number of workers                    ... 8
  Number of available CPUs                   ... 16
  Parameter list (worker : temperature)      ...  0 : 2903.97,  1 : 1451.98, 
                                                  2 :  725.99,  3 :  363.00, 
                                                  4 : 2903.97,  5 : 1451.98, 
                                                  6 :  725.99,  7 :  363.00 
  GradComp (mean : sigma)                    ... 1.00 : 0.50
  Number of fragments                        ... 1
  Number of atoms                            ... 11
  Flexibility parameter                      ... 1.00
  Optimizations per global step              ... 144
  Optimizations per worker                   ... 18

Filtering criteria
------------------
  RMSD                                       ... 0.125 Angs (atom. pos.)
  EnDiff                                     ... 0.100 kcal/mol
  RotConst                                   ... 1.00-2.50 %
  Maximum Conf. Energy                       ... 6.000 kcal/mol

Thermodynamics
--------------
  Ensemble temperature                       ... 298.15 K
  Degeneracy of conformers                   ... 1
  *No rotamers will be included in Gconf

------------------------------------------------------------------------------
   Iter  MinTemp     MaxEn       GradComp    NOpt   NProcs    Output
------------------------------------------------------------------------------
List of participating nodes    ...  1,3-dichloropropane.goat.0.hostnames

   2      725.99     33.00    1.00 : 0.50      18        2    1,3-dichloropropane.goat.0.2.out
   4     2903.97     33.00    1.00 : 0.50      18        2    1,3-dichloropropane.goat.0.4.out
   7      363.00     33.00    1.00 : 0.50      18        2    1,3-dichloropropane.goat.0.7.out
   0     2903.97     33.00    1.00 : 0.50      18        2    1,3-dichloropropane.goat.0.0.out
   6      725.99     33.00    1.00 : 0.50      18        2    1,3-dichloropropane.goat.0.6.out
   1     1451.98     33.00    1.00 : 0.50      18        2    1,3-dichloropropane.goat.0.1.out
   5     1451.98     33.00    1.00 : 0.50      18        2    1,3-dichloropropane.goat.0.5.out
   3      363.00     33.00    1.00 : 0.50      18        2    1,3-dichloropropane.goat.0.3.out

			     GOAT Global Iter 1
		Iter    Min En       Sconf       Gconf   
		        Hartree      cal/(molK)  kcal/mol
		=========================================

		   1    -18.583408   1.639       -0.244

List of participating nodes    ...  1,3-dichloropropane.goat.1.hostnames

   6      725.99     33.00    1.00 : 0.50      18        2    1,3-dichloropropane.goat.1.6.out
   3      363.00     33.00    1.00 : 0.50      18        2    1,3-dichloropropane.goat.1.3.out
   7      363.00     33.00    1.00 : 0.50      18        2    1,3-dichloropropane.goat.1.7.out
   0     2903.97     33.00    1.00 : 0.50      18        2    1,3-dichloropropane.goat.1.0.out
   5     1451.98     33.00    1.00 : 0.50      18        2    1,3-dichloropropane.goat.1.5.out
   2      725.99     33.00    1.00 : 0.50      18        2    1,3-dichloropropane.goat.1.2.out
   4     2903.97     33.00    1.00 : 0.50      18        2    1,3-dichloropropane.goat.1.4.out
   1     1451.98     33.00    1.00 : 0.50      18        2    1,3-dichloropropane.goat.1.1.out

			     GOAT Global Iter 2
		Iter    Min En       Sconf       Gconf   
		        Hartree      cal/(molK)  kcal/mol
		=========================================

		   1    -18.583408   1.639       -0.244
		   2    -18.583408   1.639       -0.244

List of participating nodes    ...  1,3-dichloropropane.goat.2.hostnames

   5     1451.98     33.00    1.00 : 0.50      18        2    1,3-dichloropropane.goat.2.5.out
   3      363.00     33.00    1.00 : 0.50      18        2    1,3-dichloropropane.goat.2.3.out
   0     2903.97     33.00    1.00 : 0.50      18        2    1,3-dichloropropane.goat.2.0.out
   1     1451.98     33.00    1.00 : 0.50      18        2    1,3-dichloropropane.goat.2.1.out
   7      363.00     33.00    1.00 : 0.50      18        2    1,3-dichloropropane.goat.2.7.out
   2      725.99     33.00    1.00 : 0.50      18        2    1,3-dichloropropane.goat.2.2.out
   6      725.99     33.00    1.00 : 0.50      18        2    1,3-dichloropropane.goat.2.6.out
   4     2903.97     33.00    1.00 : 0.50      18        2    1,3-dichloropropane.goat.2.4.out

			     GOAT Global Iter 3
		Iter    Min En       Sconf       Gconf   
		        Hartree      cal/(molK)  kcal/mol
		=========================================

		   1    -18.583408   1.639       -0.244
		   2    -18.583408   1.639       -0.244
		   3    -18.583408   1.660       -0.245

		Global minimum found!
		Writing structure to 1,3-dichloropropane.globalminimum.xyz

		# Final ensemble info #
		Conformer     Energy     Degen.   % total   % cumul.  
		              (kcal/mol)
		------------------------------------------------------
		        0     0.000	     1      66.11      66.11
		        1     0.520	     1      27.49      93.60
		        2     1.477	     1       5.47      99.07
		        3     2.638	     1       0.77      99.84
		        4     3.563	     1       0.16     100.00

		Conformers below 3 kcal/mol: 4
		Lowest energy conformer    : -18.583408 Eh
		Sconf at 298.15 K          :  1.66 cal/(molK)
		Gconf at 298.15 K          : -0.25 kcal/mol

		Writing final ensemble to 1,3-dichloropropane.finalensemble.xyz

--------------------------------
SUGGESTED CITATIONS FOR THIS RUN
--------------------------------

Below you find a list of papers that are relevant to this ORCA run
We neither can nor want to force you to cite these papers, but we appreciate if you do
You receive ORCA, which is the product of decades of hard work by many enthusiastic individuals, for free
The only thing we kindly ask in return is that you cite our papers,
We deeply appreciate it, if you show your appreciation for ORCA by not just citing the generic ORCA reference.

Please note that relegating all ORCA citations to the supporting information does *not* help us.
SI sections are not indexed - citations you put there will not count into any citation statistics
But we need these citations in order to attract the funding resources that allow us to do what we are doing

Therefore, if you are a happy ORCA user, please consider citing a few of the papers listed below in the main body of your paper

In addition to the list printed below, the program has created the file 1,3-dichloropropane.bibtex that contains the list in bibtex format
You can import this file easily into all common literature databanks and citation aid programs


List of essential papers. We consider these as the minimum necessary citations

  1. Bannwarth, C.; Ehlert, S.; Grimme, S.
     GFN2-xTB—An Accurate and Broadly Parametrized Self-Consistent Tight-Binding Quantum Chemical Method with Multipole Electrostatics and Density-Dependent Dispersion Contributions
     J. Chem. Theory Comput. 2019 15(3), 1652-1671
     doi.org/10.1021/acs.jctc.8b01176
  2. Neese, F.
     Software update: the ORCA program system, version 6.0
     WIRES Comput. Molec. Sci. 2025 15(1), e70019
     doi.org/10.1002/wcms.7019
  3. de Souza, B.
     GOAT: A Global Optimization Algorithm for Molecules and Atomic Clusters
     Angewandte Chemie 2025 64(18), e202500393
     doi.org/10.1002/anie.202500393

List of papers to cite with high priority. The work reported in these papers was absolutely
necessary for this run to complete.
Our perspective: the developers of density functionals and basis sets usually get cited in chemistry papers
Good! But without the algorithms to do something with them, the functionals or basis sets would not do anything.
Hence, in our opinion, the algorithm design and method developments papers are equally worthy of getting cited

  1. Bannwarth, C.; Caldeweyher, E.; Ehlert, S.; Hansen, A.; Pracht, P.; Seibert, J.; Spicher, S.; Grimme, S.
     Extended tight-binding quantum chemistry methods
     WIRES Comput. Molec. Sci. 2020 11(2), e1493
     doi.org/10.1002/wcms.1493

List of suggested additional citations. These are papers that are important in the 'surrounding' of 
of this run, or papers that preceded the highly important papers. If you like your results we are grateful for a citation.

  1. Neese, F.
     The ORCA program system
     WIRES Comput. Molec. Sci. 2012 2(1), 73-78
     doi.org/10.1002/wcms.81
  2. Neese, F.
     Software update: the ORCA program system, version 4.0
     WIRES Comput. Molec. Sci. 2018 8(1), 1-6
     doi.org/10.1002/wcms.1327
  3. Neese, F.; Wennmohs, F.; Becker, U.; Riplinger, C.
     The ORCA quantum chemistry program package
     J. Chem. Phys. 2020 152(22), 224108
     doi.org/10.1063/5.0004608
  4. Neese, F.
     Software update: The ORCA program system—Version 5.0
     WIRES Comput. Molec. Sci. 2022 12(1), e1606
     doi.org/10.1002/wcms.1606

List of optional additional citations

  1. Neese, F.
     Approximate second-order SCF convergence for spin unrestricted wavefunctions
     Chem. Phys. Lett. 2000 325(1-3), 93-98
     doi.org/10.1016/s0009-2614(00)00662-x

Timings for individual modules:

Sum of individual times          ...       73.064 sec (=   1.218 min)
Geometry relaxation              ...        0.051 sec (=   0.001 min)   0.1 %
GOAT                             ...       72.133 sec (=   1.202 min)  98.7 %
XTB module                       ...        0.880 sec (=   0.015 min)   1.2 %
                             ****ORCA TERMINATED NORMALLY****
TOTAL RUN TIME: 0 days 0 hours 1 minutes 14 seconds 780 msec
