
                                 *****************
                                 * O   R   C   A *
                                 *****************

                                            #,                                       
                                            ###                                      
                                            ####                                     
                                            #####                                    
                                            ######                                   
                                           ########,                                 
                                     ,,################,,,,,                         
                               ,,#################################,,                 
                          ,,##########################################,,             
                       ,#########################################, ''#####,          
                    ,#############################################,,   '####,        
                  ,##################################################,,,,####,       
                ,###########''''           ''''###############################       
              ,#####''   ,,,,##########,,,,          '''####'''          '####       
            ,##' ,,,,###########################,,,                        '##       
           ' ,,###''''                  '''############,,,                           
         ,,##''                                '''############,,,,        ,,,,,,###''
      ,#''                                            '''#######################'''  
     '                                                          ''''####''''         
             ,#######,   #######,   ,#######,      ##                                
            ,#'     '#,  ##    ##  ,#'     '#,    #''#        ######   ,####,        
            ##       ##  ##   ,#'  ##            #'  '#       #        #'  '#        
            ##       ##  #######   ##           ,######,      #####,   #    #        
            '#,     ,#'  ##    ##  '#,     ,#' ,#      #,         ##   #,  ,#        
             '#######'   ##     ##  '#######'  #'      '#     #####' # '####'        



                  #######################################################
                  #                        -***-                        #
                  #          Department of theory and spectroscopy      #
                  #    Directorship and core code : Frank Neese         #
                  #        Max Planck Institute fuer Kohlenforschung    #
                  #                Kaiser Wilhelm Platz 1               #
                  #                 D-45470 Muelheim/Ruhr               #
                  #                      Germany                        #
                  #                                                     #
                  #                  All rights reserved                #
                  #                        -***-                        #
                  #######################################################


                         Program Version 5.0.3 -  RELEASE  -


 With contributions from (in alphabetic order):
   Daniel Aravena         : Magnetic Suceptibility
   Michael Atanasov       : Ab Initio Ligand Field Theory (pilot matlab implementation)
   Alexander A. Auer      : GIAO ZORA, VPT2 properties, NMR spectrum
   Ute Becker             : Parallelization
   Giovanni Bistoni       : ED, misc. LED, open-shell LED, HFLD
   Martin Brehm           : Molecular dynamics
   Dmytro Bykov           : SCF Hessian
   Vijay G. Chilkuri      : MRCI spin determinant printing, contributions to CSF-ICE
   Dipayan Datta          : RHF DLPNO-CCSD density
   Achintya Kumar Dutta   : EOM-CC, STEOM-CC
   Dmitry Ganyushin       : Spin-Orbit,Spin-Spin,Magnetic field MRCI
   Miquel Garcia          : C-PCM and meta-GGA Hessian, CC/C-PCM, Gaussian charge scheme
   Yang Guo               : DLPNO-NEVPT2, F12-NEVPT2, CIM, IAO-localization
   Andreas Hansen         : Spin unrestricted coupled pair/coupled cluster methods
   Benjamin Helmich-Paris : MC-RPA, TRAH-SCF, COSX integrals
   Lee Huntington         : MR-EOM, pCC
   Robert Izsak           : Overlap fitted RIJCOSX, COSX-SCS-MP3, EOM
   Marcus Kettner         : VPT2
   Christian Kollmar      : KDIIS, OOCD, Brueckner-CCSD(T), CCSD density, CASPT2, CASPT2-K
   Simone Kossmann        : Meta GGA functionals, TD-DFT gradient, OOMP2, MP2 Hessian
   Martin Krupicka        : Initial AUTO-CI
   Lucas Lang             : DCDCAS
   Marvin Lechner         : AUTO-CI (C++ implementation), FIC-MRCC
   Dagmar Lenk            : GEPOL surface, SMD
   Dimitrios Liakos       : Extrapolation schemes; Compound Job, initial MDCI parallelization
   Dimitrios Manganas     : Further ROCIS development; embedding schemes
   Dimitrios Pantazis     : SARC Basis sets
   Anastasios Papadopoulos: AUTO-CI, single reference methods and gradients
   Taras Petrenko         : DFT Hessian,TD-DFT gradient, ASA, ECA, R-Raman, ABS, FL, XAS/XES, NRVS
   Peter Pinski           : DLPNO-MP2, DLPNO-MP2 Gradient
   Christoph Reimann      : Effective Core Potentials
   Marius Retegan         : Local ZFS, SOC
   Christoph Riplinger    : Optimizer, TS searches, QM/MM, DLPNO-CCSD(T), (RO)-DLPNO pert. Triples
   Tobias Risthaus        : Range-separated hybrids, TD-DFT gradient, RPA, STAB
   Michael Roemelt        : Original ROCIS implementation
   Masaaki Saitow         : Open-shell DLPNO-CCSD energy and density
   Barbara Sandhoefer     : DKH picture change effects
   Avijit Sen             : IP-ROCIS
   Kantharuban Sivalingam : CASSCF convergence, NEVPT2, FIC-MRCI
   Bernardo de Souza      : ESD, SOC TD-DFT
   Georgi Stoychev        : AutoAux, RI-MP2 NMR, DLPNO-MP2 response
   Willem Van den Heuvel  : Paramagnetic NMR
   Boris Wezisla          : Elementary symmetry handling
   Frank Wennmohs         : Technical directorship


 We gratefully acknowledge several colleagues who have allowed us to
 interface, adapt or use parts of their codes:
   Stefan Grimme, W. Hujo, H. Kruse, P. Pracht,  : VdW corrections, initial TS optimization,
                  C. Bannwarth, S. Ehlert          DFT functionals, gCP, sTDA/sTD-DF
   Ed Valeev, F. Pavosevic, A. Kumar             : LibInt (2-el integral package), F12 methods
   Garnet Chan, S. Sharma, J. Yang, R. Olivares  : DMRG
   Ulf Ekstrom                                   : XCFun DFT Library
   Mihaly Kallay                                 : mrcc  (arbitrary order and MRCC methods)
   Jiri Pittner, Ondrej Demel                    : Mk-CCSD
   Frank Weinhold                                : gennbo (NPA and NBO analysis)
   Christopher J. Cramer and Donald G. Truhlar   : smd solvation model
   Lars Goerigk                                  : TD-DFT with DH, B97 family of functionals
   V. Asgeirsson, H. Jonsson                     : NEB implementation
   FAccTs GmbH                                   : IRC, NEB, NEB-TS, DLPNO-Multilevel, CI-OPT
                                                   MM, QMMM, 2- and 3-layer-ONIOM, Crystal-QMMM,
                                                   LR-CPCM, SF, NACMEs, symmetry and pop. for TD-DFT,
                                                   nearIR, NL-DFT gradient (VV10), updates on ESD,
                                                   ML-optimized integration grids
   S Lehtola, MJT Oliveira, MAL Marques          : LibXC Library
   Liviu Ungur et al                             : ANISO software


 Your calculation uses the libint2 library for the computation of 2-el integrals
 For citations please refer to: http://libint.valeyev.net

 Your ORCA version has been built with support for libXC version: 5.1.0
 For citations please refer to: https://tddft.org/programs/libxc/

 This ORCA versions uses:
   CBLAS   interface :  Fast vector & matrix operations
   LAPACKE interface :  Fast linear algebra routines
   Shared memory     :  Shared parallel matrices


================================================================================

----- Orbital basis set information -----
Your calculation utilizes the basis: def2-SVP
   F. Weigend and R. Ahlrichs, Phys. Chem. Chem. Phys. 7, 3297 (2005).

----- AuxJ basis set information -----
Your calculation utilizes the auxiliary basis: def2/J
   F. Weigend, Phys. Chem. Chem. Phys. 8, 1057 (2006).

================================================================================
                                        WARNINGS
                       Please study these warnings very carefully!
================================================================================


WARNING: Geometry Optimization
  ===> : Switching off AutoStart
         For restart on a previous wavefunction, please use MOREAD

INFO   : the flag for use of the SHARK integral package has been found!

================================================================================
                                       INPUT FILE
================================================================================
NAME = C20.inp
|  1> ! OPT FREQ B3LYP DEF2-SVp 
|  2> %PAL NPROCS 2 END
|  3> * xyz 0 1
|  4>    C       -0.96028       -0.57833        1.66249
|  5>    C       -2.15668       -1.39937        1.57663
|  6>    C       -3.30614        1.40061        0.37986
|  7>    C       -3.32589       -0.54967        1.57670
|  8>    C       -1.01840        1.39699        0.35959
|  9>    C       -2.91524        0.84239        1.66286
| 10>    C       -0.30750       -0.77791        0.37968
| 11>    C       -1.46558        0.78209        1.58809
| 12>    C       -2.16847       -2.24207        0.39240
| 13>    C       -4.12374       -0.82125        0.39289
| 14>    C       -2.16820        1.87035       -0.39240
| 15>    C       -0.21292        0.44953       -0.39289
| 16>    C       -1.03052       -1.77232       -0.37986
| 17>    C       -3.31827       -1.76871       -0.35959
| 18>    C       -4.02917        0.40620       -0.37968
| 19>    C       -2.17999        1.02765       -1.57663
| 20>    C       -1.01077        0.17796       -1.57670
| 21>    C       -1.42143       -1.21410       -1.66286
| 22>    C       -2.87109       -1.15381       -1.58809
| 23>    C       -3.37638        0.20661       -1.66249
| 24> *
| 25> 
| 26>                          ****END OF INPUT****
================================================================================

                       *****************************
                       * Geometry Optimization Run *
                       *****************************

Geometry optimization settings:
Update method            Update   .... BFGS
Choice of coordinates    CoordSys .... Z-matrix Internals
Initial Hessian          InHess   .... Almoef's Model

Convergence Tolerances:
Energy Change            TolE     ....  5.0000e-06 Eh
Max. Gradient            TolMAXG  ....  3.0000e-04 Eh/bohr
RMS Gradient             TolRMSG  ....  1.0000e-04 Eh/bohr
Max. Displacement        TolMAXD  ....  4.0000e-03 bohr
RMS Displacement         TolRMSD  ....  2.0000e-03 bohr
Strict Convergence                ....  False
------------------------------------------------------------------------------
                        ORCA OPTIMIZATION COORDINATE SETUP
------------------------------------------------------------------------------

The optimization will be done in new redundant internal coordinates
Making redundant internal coordinates   ...  (new redundants) done
Evaluating the initial hessian          ...  (Almloef) done
Evaluating the coordinates              ...  done
Calculating the B-matrix                .... done
Calculating the G-matrix                .... done
Diagonalizing the G-matrix              .... done
The first mode is                       ....  156
The number of degrees of freedom        ....   54

    -----------------------------------------------------------------
                    Redundant Internal Coordinates


    -----------------------------------------------------------------
         Definition                    Initial Value    Approx d2E/dq
    -----------------------------------------------------------------
      1. B(C   1,C   0)                  1.4536         0.494680   
      2. B(C   3,C   1)                  1.4454         0.509833   
      3. B(C   5,C   2)                  1.4528         0.496152   
      4. B(C   5,C   3)                  1.4539         0.494033   
      5. B(C   6,C   0)                  1.4531         0.495491   
      6. B(C   7,C   4)                  1.4447         0.510974   
      7. B(C   7,C   5)                  1.4528         0.496002   
      8. B(C   7,C   0)                  1.4531         0.495459   
      9. B(C   8,C   1)                  1.4535         0.494786   
     10. B(C   9,C   3)                  1.4532         0.495384   
     11. B(C  10,C   4)                  1.4531         0.495464   
     12. B(C  10,C   2)                  1.4533         0.495245   
     13. B(C  11,C   6)                  1.4534         0.494951   
     14. B(C  11,C   4)                  1.4535         0.494772   
     15. B(C  12,C   6)                  1.4452         0.510178   
     16. B(C  12,C   8)                  1.4533         0.495225   
     17. B(C  13,C   9)                  1.4535         0.494782   
     18. B(C  13,C   8)                  1.4531         0.495464   
     19. B(C  14,C   9)                  1.4534         0.494937   
     20. B(C  14,C   2)                  1.4452         0.510169   
     21. B(C  15,C  10)                  1.4535         0.494786   
     22. B(C  16,C  15)                  1.4454         0.509829   
     23. B(C  16,C  11)                  1.4532         0.495387   
     24. B(C  17,C  16)                  1.4539         0.494028   
     25. B(C  17,C  12)                  1.4528         0.496147   
     26. B(C  18,C  17)                  1.4528         0.496002   
     27. B(C  18,C  13)                  1.4447         0.510974   
     28. B(C  19,C  18)                  1.4531         0.495466   
     29. B(C  19,C  15)                  1.4536         0.494695   
     30. B(C  19,C  14)                  1.4531         0.495480   
     31. A(C   1,C   0,C   6)          103.8880         0.400653   
     32. A(C   1,C   0,C   7)          103.8613         0.400648   
     33. A(C   6,C   0,C   7)          103.8626         0.400764   
     34. A(C   0,C   1,C   8)          112.4751         0.400552   
     35. A(C   3,C   1,C   8)          109.5309         0.402687   
     36. A(C   0,C   1,C   3)          109.4971         0.402672   
     37. A(C   5,C   2,C  14)          109.5348         0.402929   
     38. A(C  10,C   2,C  14)          109.5652         0.402800   
     39. A(C   5,C   2,C  10)          112.5081         0.400827   
     40. A(C   1,C   3,C   9)          109.5260         0.402773   
     41. A(C   5,C   3,C   9)          112.4752         0.400545   
     42. A(C   1,C   3,C   5)          109.5356         0.402579   
     43. A(C   7,C   4,C  11)          109.5302         0.402844   
     44. A(C  10,C   4,C  11)          112.5143         0.400662   
     45. A(C   7,C   4,C  10)          109.4978         0.402943   
     46. A(C   3,C   5,C   7)          103.8297         0.400633   
     47. A(C   2,C   5,C   3)          103.8609         0.400654   
     48. A(C   2,C   5,C   7)          103.8265         0.400935   
     49. A(C  11,C   6,C  12)          109.5297         0.402759   
     50. A(C   0,C   6,C  11)          112.4884         0.400691   
     51. A(C   0,C   6,C  12)          109.4954         0.402836   
     52. A(C   0,C   7,C   4)          109.5337         0.402942   
     53. A(C   4,C   7,C   5)          109.5690         0.403020   
     54. A(C   0,C   7,C   5)          112.5315         0.400836   
     55. A(C  12,C   8,C  13)          103.8444         0.400726   
     56. A(C   1,C   8,C  13)          103.8382         0.400664   
     57. A(C   1,C   8,C  12)          103.8390         0.400630   
     58. A(C   3,C   9,C  13)          103.8455         0.400652   
     59. A(C  13,C   9,C  14)          103.8426         0.400588   
     60. A(C   3,C   9,C  14)          103.8550         0.400674   
     61. A(C   2,C  10,C  15)          103.8394         0.400632   
     62. A(C   2,C  10,C   4)          103.8443         0.400729   
     63. A(C   4,C  10,C  15)          103.8382         0.400664   
     64. A(C   4,C  11,C   6)          103.8421         0.400589   
     65. A(C   6,C  11,C  16)          103.8553         0.400676   
     66. A(C   4,C  11,C  16)          103.8450         0.400651   
     67. A(C   6,C  12,C   8)          109.5653         0.402798   
     68. A(C   8,C  12,C  17)          112.5076         0.400823   
     69. A(C   6,C  12,C  17)          109.5349         0.402930   
     70. A(C   8,C  13,C   9)          112.5141         0.400663   
     71. A(C   9,C  13,C  18)          109.5302         0.402845   
     72. A(C   8,C  13,C  18)          109.4978         0.402943   
     73. A(C   2,C  14,C  19)          109.4952         0.402833   
     74. A(C   9,C  14,C  19)          112.4876         0.400688   
     75. A(C   2,C  14,C   9)          109.5296         0.402755   
     76. A(C  16,C  15,C  19)          109.4974         0.402673   
     77. A(C  10,C  15,C  19)          112.4753         0.400554   
     78. A(C  10,C  15,C  16)          109.5306         0.402686   
     79. A(C  15,C  16,C  17)          109.5347         0.402578   
     80. A(C  11,C  16,C  17)          112.4750         0.400545   
     81. A(C  11,C  16,C  15)          109.5265         0.402773   
     82. A(C  16,C  17,C  18)          103.8304         0.400632   
     83. A(C  12,C  17,C  18)          103.8268         0.400934   
     84. A(C  12,C  17,C  16)          103.8606         0.400653   
     85. A(C  17,C  18,C  19)          112.5307         0.400837   
     86. A(C  13,C  18,C  19)          109.5339         0.402943   
     87. A(C  13,C  18,C  17)          109.5692         0.403020   
     88. A(C  15,C  19,C  18)          103.8619         0.400651   
     89. A(C  14,C  19,C  18)          103.8629         0.400763   
     90. A(C  14,C  19,C  15)          103.8879         0.400653   
     91. D(C   3,C   1,C   0,C   6)   -113.4440         0.016665   
     92. D(C   8,C   1,C   0,C   7)    116.9547         0.016665   
     93. D(C   3,C   1,C   0,C   7)     -5.0697         0.016665   
     94. D(C   8,C   1,C   0,C   6)      8.5804         0.016665   
     95. D(C   9,C   3,C   1,C   8)      0.0117         0.017714   
     96. D(C   9,C   3,C   1,C   0)    123.7838         0.017714   
     97. D(C   5,C   3,C   1,C   0)     -0.0106         0.017714   
     98. D(C   5,C   3,C   1,C   8)   -123.7826         0.017714   
     99. D(C   7,C   5,C   2,C  10)     -8.7002         0.016765   
    100. D(C   7,C   5,C   3,C   1)      5.0864         0.016621   
    101. D(C   2,C   5,C   3,C   9)     -8.6440         0.016621   
    102. D(C   7,C   5,C   2,C  14)    113.4172         0.016765   
    103. D(C   3,C   5,C   2,C  14)      5.0997         0.016765   
    104. D(C   3,C   5,C   2,C  10)   -117.0176         0.016765   
    105. D(C   7,C   5,C   3,C   9)   -116.9591         0.016621   
    106. D(C   2,C   5,C   3,C   1)    113.4015         0.016621   
    107. D(C  12,C   6,C   0,C   7)   -113.3916         0.016720   
    108. D(C  12,C   6,C   0,C   1)     -5.0182         0.016720   
    109. D(C  11,C   6,C   0,C   7)      8.6391         0.016720   
    110. D(C  11,C   6,C   0,C   1)    117.0124         0.016720   
    111. D(C   0,C   7,C   5,C   3)     -8.6415         0.016755   
    112. D(C   0,C   7,C   5,C   2)   -116.9822         0.016755   
    113. D(C   5,C   7,C   4,C  11)   -123.8518         0.017794   
    114. D(C   0,C   7,C   4,C  11)      0.0405         0.017794   
    115. D(C   5,C   7,C   4,C  10)     -0.0307         0.017794   
    116. D(C   5,C   7,C   0,C   6)    117.0318         0.016718   
    117. D(C   4,C   7,C   0,C   6)     -5.1055         0.016718   
    118. D(C   5,C   7,C   0,C   1)      8.6387         0.016718   
    119. D(C   4,C   7,C   5,C   2)      5.1351         0.016755   
    120. D(C   4,C   7,C   0,C   1)   -113.4986         0.016718   
    121. D(C   0,C   7,C   4,C  10)    123.8616         0.017794   
    122. D(C   4,C   7,C   5,C   3)    113.4759         0.016755   
    123. D(C  13,C   8,C   1,C   3)      5.0720         0.016672   
    124. D(C  13,C   8,C   1,C   0)   -116.9332         0.016672   
    125. D(C  12,C   8,C   1,C   3)    113.4020         0.016672   
    126. D(C  12,C   8,C   1,C   0)     -8.6033         0.016672   
    127. D(C  14,C   9,C   3,C   5)      8.6260         0.016713   
    128. D(C  14,C   9,C   3,C   1)   -113.4249         0.016713   
    129. D(C  13,C   9,C   3,C   5)    116.9620         0.016713   
    130. D(C  13,C   9,C   3,C   1)     -5.0890         0.016713   
    131. D(C  15,C  10,C   4,C  11)      8.6378         0.016718   
    132. D(C   2,C  10,C   4,C  11)    116.9642         0.016718   
    133. D(C   2,C  10,C   4,C   7)     -5.0864         0.016718   
    134. D(C  15,C  10,C   2,C  14)     -5.0900         0.016703   
    135. D(C  15,C  10,C   2,C   5)    117.0101         0.016703   
    136. D(C  15,C  10,C   4,C   7)   -113.4127         0.016718   
    137. D(C   4,C  10,C   2,C  14)   -113.4155         0.016703   
    138. D(C   4,C  10,C   2,C   5)      8.6846         0.016703   
    139. D(C  16,C  11,C   6,C  12)      5.0597         0.016683   
    140. D(C   4,C  11,C   6,C  12)    113.3972         0.016683   
    141. D(C   4,C  11,C   6,C   0)     -8.6141         0.016683   
    142. D(C  16,C  11,C   4,C  10)     -8.6455         0.016671   
    143. D(C  16,C  11,C   4,C   7)    113.3867         0.016671   
    144. D(C  16,C  11,C   6,C   0)   -116.9515         0.016683   
    145. D(C   6,C  11,C   4,C  10)   -116.9906         0.016671   
    146. D(C   6,C  11,C   4,C   7)      5.0416         0.016671   
    147. D(C   6,C  12,C   8,C  13)    113.4152         0.016702   
    148. D(C   6,C  12,C   8,C   1)      5.0898         0.016702   
    149. D(C  17,C  12,C   6,C  11)      0.0270         0.017738   
    150. D(C   8,C  12,C   6,C  11)   -123.8337         0.017738   
    151. D(C   8,C  12,C   6,C   0)     -0.0470         0.017738   
    152. D(C  17,C  12,C   8,C   1)   -117.0102         0.016702   
    153. D(C  17,C  12,C   6,C   0)    123.8137         0.017738   
    154. D(C  17,C  12,C   8,C  13)     -8.6848         0.016702   
    155. D(C  18,C  13,C   9,C  14)     -5.0412         0.016672   
    156. D(C  18,C  13,C   9,C   3)   -113.3864         0.016672   
    157. D(C   8,C  13,C   9,C  14)    116.9908         0.016672   
    158. D(C   8,C  13,C   9,C   3)      8.6456         0.016672   
    159. D(C  18,C  13,C   8,C  12)      5.0867         0.016718   
    160. D(C  18,C  13,C   8,C   1)    113.4127         0.016718   
    161. D(C   9,C  13,C   8,C  12)   -116.9636         0.016718   
    162. D(C   9,C  13,C   8,C   1)     -8.6376         0.016718   
    163. D(C  19,C  14,C   9,C  13)      8.6133         0.016682   
    164. D(C  19,C  14,C   9,C   3)    116.9514         0.016682   
    165. D(C   2,C  14,C   9,C  13)   -113.3970         0.016682   
    166. D(C   2,C  14,C   9,C   3)     -5.0589         0.016682   
    167. D(C  19,C  14,C   2,C  10)      0.0476         0.017738   
    168. D(C  19,C  14,C   2,C   5)   -123.8136         0.017738   
    169. D(C   9,C  14,C   2,C  10)    123.8331         0.017738   
    170. D(C   9,C  14,C   2,C   5)     -0.0281         0.017738   
    171. D(C  19,C  15,C  10,C   4)    116.9330         0.016672   
    172. D(C  19,C  15,C  10,C   2)      8.6030         0.016672   
    173. D(C  16,C  15,C  10,C   4)     -5.0725         0.016672   
    174. D(C  16,C  15,C  10,C   2)   -113.4025         0.016672   
    175. D(C  17,C  16,C  15,C  19)      0.0105         0.017714   
    176. D(C  17,C  16,C  15,C  10)    123.7828         0.017714   
    177. D(C  11,C  16,C  15,C  19)   -123.7834         0.017714   
    178. D(C  11,C  16,C  15,C  10)     -0.0111         0.017714   
    179. D(C  17,C  16,C  11,C   6)     -8.6262         0.016713   
    180. D(C  17,C  16,C  11,C   4)   -116.9616         0.016713   
    181. D(C  15,C  16,C  11,C   6)    113.4238         0.016713   
    182. D(C  15,C  16,C  11,C   4)      5.0885         0.016713   
    183. D(C  18,C  17,C  16,C  15)     -5.0864         0.016620   
    184. D(C  18,C  17,C  16,C  11)    116.9590         0.016620   
    185. D(C  12,C  17,C  16,C  15)   -113.4019         0.016620   
    186. D(C  12,C  17,C  16,C  11)      8.6435         0.016620   
    187. D(C  18,C  17,C  12,C   8)      8.7002         0.016764   
    188. D(C  18,C  17,C  12,C   6)   -113.4171         0.016764   
    189. D(C  16,C  17,C  12,C   8)    117.0184         0.016764   
    190. D(C  16,C  17,C  12,C   6)     -5.0988         0.016764   
    191. D(C  19,C  18,C  17,C  16)      8.6415         0.016755   
    192. D(C  19,C  18,C  17,C  12)    116.9823         0.016755   
    193. D(C  13,C  18,C  17,C  16)   -113.4757         0.016755   
    194. D(C  13,C  18,C  17,C  12)     -5.1350         0.016755   
    195. D(C  19,C  18,C  13,C   9)     -0.0405         0.017794   
    196. D(C  19,C  18,C  13,C   8)   -123.8612         0.017794   
    197. D(C  17,C  18,C  13,C   9)    123.8511         0.017794   
    198. D(C  17,C  18,C  13,C   8)      0.0304         0.017794   
    199. D(C  15,C  19,C  18,C  17)     -8.6387         0.016718   
    200. D(C  14,C  19,C  18,C  17)   -117.0321         0.016718   
    201. D(C  14,C  19,C  18,C  13)      5.1050         0.016718   
    202. D(C  18,C  19,C  15,C  16)      5.0698         0.016666   
    203. D(C  18,C  19,C  15,C  10)   -116.9546         0.016666   
    204. D(C  14,C  19,C  15,C  16)    113.4446         0.016666   
    205. D(C  14,C  19,C  15,C  10)     -8.5798         0.016666   
    206. D(C  18,C  19,C  14,C   9)     -8.6383         0.016719   
    207. D(C  18,C  19,C  14,C   2)    113.3915         0.016719   
    208. D(C  15,C  19,C  18,C  13)    113.4985         0.016718   
    209. D(C  15,C  19,C  14,C   9)   -117.0123         0.016719   
    210. D(C  15,C  19,C  14,C   2)      5.0175         0.016719   
    -----------------------------------------------------------------

Number of atoms                         .... 20
Number of degrees of freedom            .... 210

         *************************************************************
         *                GEOMETRY OPTIMIZATION CYCLE   1            *
         *************************************************************
---------------------------------
CARTESIAN COORDINATES (ANGSTROEM)
---------------------------------
  C     -0.960280   -0.578330    1.662490
  C     -2.156680   -1.399370    1.576630
  C     -3.306140    1.400610    0.379860
  C     -3.325890   -0.549670    1.576700
  C     -1.018400    1.396990    0.359590
  C     -2.915240    0.842390    1.662860
  C     -0.307500   -0.777910    0.379680
  C     -1.465580    0.782090    1.588090
  C     -2.168470   -2.242070    0.392400
  C     -4.123740   -0.821250    0.392890
  C     -2.168200    1.870350   -0.392400
  C     -0.212920    0.449530   -0.392890
  C     -1.030520   -1.772320   -0.379860
  C     -3.318270   -1.768710   -0.359590
  C     -4.029170    0.406200   -0.379680
  C     -2.179990    1.027650   -1.576630
  C     -1.010770    0.177960   -1.576700
  C     -1.421430   -1.214100   -1.662860
  C     -2.871090   -1.153810   -1.588090
  C     -3.376380    0.206610   -1.662490

----------------------------
CARTESIAN COORDINATES (A.U.)
----------------------------
  NO LB      ZA    FRAG     MASS         X           Y           Z
   0 C     6.0000    0    12.011   -1.814666   -1.092885    3.141651
   1 C     6.0000    0    12.011   -4.075535   -2.644426    2.979399
   2 C     6.0000    0    12.011   -6.247699    2.646769    0.717831
   3 C     6.0000    0    12.011   -6.285021   -1.038726    2.979531
   4 C     6.0000    0    12.011   -1.924497    2.639929    0.679527
   5 C     6.0000    0    12.011   -5.509005    1.591886    3.142350
   6 C     6.0000    0    12.011   -0.581091   -1.470037    0.717491
   7 C     6.0000    0    12.011   -2.769545    1.477936    3.001055
   8 C     6.0000    0    12.011   -4.097814   -4.236898    0.741529
   9 C     6.0000    0    12.011   -7.792739   -1.551938    0.742455
  10 C     6.0000    0    12.011   -4.097304    3.534449   -0.741529
  11 C     6.0000    0    12.011   -0.402360    0.849489   -0.742455
  12 C     6.0000    0    12.011   -1.947401   -3.349199   -0.717831
  13 C     6.0000    0    12.011   -6.270622   -3.342378   -0.679527
  14 C     6.0000    0    12.011   -7.614028    0.767607   -0.717491
  15 C     6.0000    0    12.011   -4.119584    1.941977   -2.979399
  16 C     6.0000    0    12.011   -1.910078    0.336296   -2.979531
  17 C     6.0000    0    12.011   -2.686113   -2.294316   -3.142350
  18 C     6.0000    0    12.011   -5.425574   -2.180385   -3.001055
  19 C     6.0000    0    12.011   -6.380434    0.390436   -3.141651

--------------------------------
INTERNAL COORDINATES (ANGSTROEM)
--------------------------------
 C      0   0   0     0.000000000000     0.00000000     0.00000000
 C      1   0   0     1.453565127953     0.00000000     0.00000000
 C      2   1   0     3.254751100299    80.00739441     0.00000000
 C      2   1   3     1.445351901441   109.49710502   336.18748192
 C      3   2   1     2.287832661035    69.43603717    16.83084610
 C      3   2   1     1.452756475945    41.38187623   286.67302148
 C      1   2   3     1.453119197072   103.88799194   270.36851206
 C      5   3   2     1.444743649372    71.55646918   320.02287865
 C      2   1   3     1.453507133453   112.47513761    98.21190955
 C      4   2   1     1.453178046559   109.52597050   123.78380231
 C      5   3   2     1.453134092126    38.07969119   145.07709791
 C      7   1   2     1.453416229062   112.48841741   117.01241244
 C      7   1   2     1.445167872636   109.49542872   354.98176928
 C      9   2   1     1.453134092126   103.83823102   243.06675604
 C      3   2   1     1.445172875680    77.17318478   145.66986700
 C     11   5   3     1.453507133453   103.83823102   251.67367456
 C     16  11   5     1.445354112112   109.53064964   354.92748004
 C     13   7   1     1.452759166724   109.53488691   123.81371588
 C     14   9   2     1.444743649372   109.49782884   113.41270141
 C     15   3   2     1.453125062856   109.49516623   262.38013134

---------------------------
INTERNAL COORDINATES (A.U.)
---------------------------
 C      0   0   0     0.000000000000     0.00000000     0.00000000
 C      1   0   0     2.746840009649     0.00000000     0.00000000
 C      2   1   0     6.150588213645    80.00739441     0.00000000
 C      2   1   3     2.731319260866   109.49710502   336.18748192
 C      3   2   1     4.323377169597    69.43603717    16.83084610
 C      3   2   1     2.745311878817    41.38187623   286.67302148
 C      1   2   3     2.745997322410   103.88799194   270.36851206
 C      5   3   2     2.730169831035    71.55646918   320.02287865
 C      2   1   3     2.746730415928   112.47513761    98.21190955
 C      4   2   1     2.746108531823   109.52597050   123.78380231
 C      5   3   2     2.746025469983    38.07969119   145.07709791
 C      7   1   2     2.746558631523   112.48841741   117.01241244
 C      7   1   2     2.730971496824   109.49542872   354.98176928
 C      9   2   1     2.746025469983   103.83823102   243.06675604
 C      3   2   1     2.730980951206    77.17318478   145.66986700
 C     11   5   3     2.746730415928   103.83823102   251.67367456
 C     16  11   5     2.731323438429   109.53064964   354.92748004
 C     13   7   1     2.745316963652   109.53488691   123.81371588
 C     14   9   2     2.730169831035   109.49782884   113.41270141
 C     15   3   2     2.746008407135   109.49516623   262.38013134

---------------------
BASIS SET INFORMATION
---------------------
There are 1 groups of distinct atoms

 Group   1 Type C   : 7s4p1d contracted to 3s2p1d pattern {511/31/1}

Atom   0C    basis set group =>   1
Atom   1C    basis set group =>   1
Atom   2C    basis set group =>   1
Atom   3C    basis set group =>   1
Atom   4C    basis set group =>   1
Atom   5C    basis set group =>   1
Atom   6C    basis set group =>   1
Atom   7C    basis set group =>   1
Atom   8C    basis set group =>   1
Atom   9C    basis set group =>   1
Atom  10C    basis set group =>   1
Atom  11C    basis set group =>   1
Atom  12C    basis set group =>   1
Atom  13C    basis set group =>   1
Atom  14C    basis set group =>   1
Atom  15C    basis set group =>   1
Atom  16C    basis set group =>   1
Atom  17C    basis set group =>   1
Atom  18C    basis set group =>   1
Atom  19C    basis set group =>   1
---------------------------------
AUXILIARY/J BASIS SET INFORMATION
---------------------------------
There are 1 groups of distinct atoms

 Group   1 Type C   : 12s5p4d2f1g contracted to 6s4p3d1f1g pattern {711111/2111/211/2/1}

Atom   0C    basis set group =>   1
Atom   1C    basis set group =>   1
Atom   2C    basis set group =>   1
Atom   3C    basis set group =>   1
Atom   4C    basis set group =>   1
Atom   5C    basis set group =>   1
Atom   6C    basis set group =>   1
Atom   7C    basis set group =>   1
Atom   8C    basis set group =>   1
Atom   9C    basis set group =>   1
Atom  10C    basis set group =>   1
Atom  11C    basis set group =>   1
Atom  12C    basis set group =>   1
Atom  13C    basis set group =>   1
Atom  14C    basis set group =>   1
Atom  15C    basis set group =>   1
Atom  16C    basis set group =>   1
Atom  17C    basis set group =>   1
Atom  18C    basis set group =>   1
Atom  19C    basis set group =>   1


           ************************************************************
           *        Program running with 2 parallel MPI-processes     *
           *              working on a common directory               *
           ************************************************************
------------------------------------------------------------------------------
                           ORCA GTO INTEGRAL CALCULATION
                           -- RI-GTO INTEGRALS CHOSEN --
------------------------------------------------------------------------------
------------------------------------------------------------------------------
                   ___                                                        
                  /   \      - P O W E R E D   B Y -                         
                 /     \                                                     
                 |  |  |   _    _      __       _____    __    __             
                 |  |  |  | |  | |    /  \     |  _  \  |  |  /  |          
                  \  \/   | |  | |   /    \    | | | |  |  | /  /          
                 / \  \   | |__| |  /  /\  \   | |_| |  |  |/  /          
                |  |  |   |  __  | /  /__\  \  |    /   |      \           
                |  |  |   | |  | | |   __   |  |    \   |  |\   \          
                \     /   | |  | | |  |  |  |  | |\  \  |  | \   \       
                 \___/    |_|  |_| |__|  |__|  |_| \__\ |__|  \__/        
                                                                              
                      - O R C A' S   B I G   F R I E N D -                    
                                      &                                       
                       - I N T E G R A L  F E E D E R -                       
                                                                              
 v1 FN, 2020, v2 2021                                                         
------------------------------------------------------------------------------


Reading SHARK input file C20.SHARKINP.tmp ... ok
----------------------
SHARK INTEGRAL PACKAGE
----------------------

Number of atoms                             ...     20
Number of basis functions                   ...    280
Number of shells                            ...    120
Maximum angular momentum                    ...      2
Integral batch strategy                     ... SHARK/LIBINT Hybrid
RI-J (if used) integral strategy            ... SPLIT-RIJ (Revised 2003 algorithm where possible)
Printlevel                                  ...      1
Contraction scheme used                     ... SEGMENTED contraction
Coulomb Range Separation                    ... NOT USED
Exchange Range Separation                   ... NOT USED
Finite Nucleus Model                        ... NOT USED
Auxiliary Coulomb fitting basis             ... AVAILABLE
   # of basis functions in Aux-J            ...    980
   # of shells in Aux-J                     ...    300
   Maximum angular momentum in Aux-J        ...      4
Auxiliary J/K fitting basis                 ... NOT available
Auxiliary Correlation fitting basis         ... NOT available
Auxiliary 'external' fitting basis          ... NOT available
Integral threshold                          ...     2.500000e-11
Primitive cut-off                           ...     2.500000e-12
Primitive pair pre-selection threshold      ...     2.500000e-12

Calculating pre-screening integrals         ... done (  0.1 sec) Dimension = 120
Organizing shell pair data                  ... done (  0.1 sec)
Shell pair information
Total number of shell pairs                 ...      7260
Shell pairs after pre-screening             ...      7012
Total number of primitive shell pairs       ...     29180
Primitive shell pairs kept                  ...     19802
          la=0 lb=0:   1670 shell pairs
          la=1 lb=0:   2392 shell pairs
          la=1 lb=1:    820 shell pairs
          la=2 lb=0:   1120 shell pairs
          la=2 lb=1:    800 shell pairs
          la=2 lb=2:    210 shell pairs

Calculating one electron integrals          ... done (  0.0 sec)
Calculating RI/J V-Matrix + Cholesky decomp.... done (  0.1 sec)
Calculating Nuclear repulsion               ... done (  0.0 sec) ENN=   1423.635881750387 Eh

SHARK setup successfully completed in   0.4 seconds

Maximum memory used throughout the entire GTOINT-calculation: 18.3 MB


           ************************************************************
           *        Program running with 2 parallel MPI-processes     *
           *              working on a common directory               *
           ************************************************************
-------------------------------------------------------------------------------
                                 ORCA SCF
-------------------------------------------------------------------------------

------------
SCF SETTINGS
------------
Hamiltonian:
 Density Functional     Method          .... DFT(GTOs)
 Exchange Functional    Exchange        .... B88
   X-Alpha parameter    XAlpha          ....  0.666667
   Becke's b parameter  XBeta           ....  0.004200
 Correlation Functional Correlation     .... LYP
 LDA part of GGA corr.  LDAOpt          .... VWN-5
 Gradients option       PostSCFGGA      .... off
 Hybrid DFT is turned on
   Fraction HF Exchange ScalHFX         ....  0.200000
   Scaling of DF-GGA-X  ScalDFX         ....  0.720000
   Scaling of DF-GGA-C  ScalDFC         ....  0.810000
   Scaling of DF-LDA-C  ScalLDAC        ....  1.000000
   Perturbative correction              ....  0.000000
   Density functional embedding theory  .... OFF
   NL short-range parameter             ....  4.800000
 RI-approximation to the Coulomb term is turned on
   Number of AuxJ basis functions       .... 980
   RIJ-COSX (HFX calculated with COS-X)).... on


General Settings:
 Integral files         IntName         .... C20
 Hartree-Fock type      HFTyp           .... RHF
 Total Charge           Charge          ....    0
 Multiplicity           Mult            ....    1
 Number of Electrons    NEL             ....  120
 Basis Dimension        Dim             ....  280
 Nuclear Repulsion      ENuc            ....   1423.6358817504 Eh

Convergence Acceleration:
 DIIS                   CNVDIIS         .... on
   Start iteration      DIISMaxIt       ....    12
   Startup error        DIISStart       ....  0.200000
   # of expansion vecs  DIISMaxEq       ....     5
   Bias factor          DIISBfac        ....   1.050
   Max. coefficient     DIISMaxC        ....  10.000
 Trust-Rad. Augm. Hess. CNVTRAH         .... auto
   Auto Start mean grad. ratio tolernc. ....  1.125000
   Auto Start start iteration           ....    20
   Auto Start num. interpolation iter.  ....    10
   Max. Number of Micro iterations      ....    16
   Max. Number of Macro iterations      .... Maxiter - #DIIS iter
   Number of Davidson start vectors     ....     2
   Converg. threshold I  (grad. norm)   ....   1.000e-05
   Converg. threshold II (energy diff.) ....   1.000e-08
   Grad. Scal. Fac. for Micro threshold ....   0.100
   Minimum threshold for Micro iter.    ....   0.010
   NR start threshold (gradient norm)   ....   0.001
   Initial trust radius                 ....   0.400
   Minimum AH scaling param. (alpha)    ....   1.000
   Maximum AH scaling param. (alpha)    .... 1000.000
   Orbital update algorithm             .... Taylor
   White noise on init. David. guess    .... on
   Maximum white noise                  ....   0.010
   Quad. conv. algorithm                .... NR
 SOSCF                  CNVSOSCF        .... on
   Start iteration      SOSCFMaxIt      ....   150
   Startup grad/error   SOSCFStart      ....  0.003300
 Level Shifting         CNVShift        .... on
   Level shift para.    LevelShift      ....    0.2500
   Turn off err/grad.   ShiftErr        ....    0.0010
 Zerner damping         CNVZerner       .... off
 Static damping         CNVDamp         .... on
   Fraction old density DampFac         ....    0.7000
   Max. Damping (<1)    DampMax         ....    0.9800
   Min. Damping (>=0)   DampMin         ....    0.0000
   Turn off err/grad.   DampErr         ....    0.1000
 Fernandez-Rico         CNVRico         .... off

SCF Procedure:
 Maximum # iterations   MaxIter         ....   125
 SCF integral mode      SCFMode         .... Direct
   Integral package                     .... SHARK and LIBINT hybrid scheme
 Reset frequency        DirectResetFreq ....    20
 Integral Threshold     Thresh          ....  2.500e-11 Eh
 Primitive CutOff       TCut            ....  2.500e-12 Eh

Convergence Tolerance:
 Convergence Check Mode ConvCheckMode   .... Total+1el-Energy
 Convergence forced     ConvForced      .... 0
 Energy Change          TolE            ....  1.000e-08 Eh
 1-El. energy change                    ....  1.000e-05 Eh
 Orbital Gradient       TolG            ....  1.000e-05
 Orbital Rotation angle TolX            ....  1.000e-05
 DIIS Error             TolErr          ....  5.000e-07


Diagonalization of the overlap matrix:
Smallest eigenvalue                        ... 7.354e-05
Time for diagonalization                   ...    0.013 sec
Threshold for overlap eigenvalues          ... 1.000e-08
Number of eigenvalues below threshold      ... 0
Time for construction of square roots      ...    0.009 sec
Total time needed                          ...    0.022 sec

Time for model grid setup =    1.239 sec

------------------------------
INITIAL GUESS: MODEL POTENTIAL
------------------------------
Loading Hartree-Fock densities                     ... done
Calculating cut-offs                               ... done
Initializing the effective Hamiltonian             ... done
Setting up the integral package (SHARK)            ... done
Starting the Coulomb interaction                   ... done (   0.5 sec)
Reading the grid                                   ... done
Mapping shells                                     ... done
Starting the XC term evaluation                    ... done (   0.6 sec)
  promolecular density results
     # of electrons  =    119.997707710
     EX              =   -103.000366810
     EC              =     -4.226604277
     EX+EC           =   -107.226971088
Transforming the Hamiltonian                       ... done (   0.0 sec)
Diagonalizing the Hamiltonian                      ... done (   0.0 sec)
Back transforming the eigenvectors                 ... done (   0.0 sec)
Now organizing SCF variables                       ... done
                      ------------------
                      INITIAL GUESS DONE (   2.4 sec)
                      ------------------
-------------------
DFT GRID GENERATION
-------------------

General Integration Accuracy     IntAcc      ... 4.388
Radial Grid Type                 RadialGrid  ... OptM3 with GC (2021)
Angular Grid (max. ang.)         AngularGrid ... 4 (Lebedev-302)
Angular grid pruning method      GridPruning ... 4 (adaptive)
Weight generation scheme         WeightScheme... Becke
Basis function cutoff            BFCut       ... 1.0000e-11
Integration weight cutoff        WCut        ... 1.0000e-14
Angular grids for H and He will be reduced by one unit
Partially contracted basis set               ... off
Rotationally invariant grid construction     ... off

Total number of grid points                  ...   117584
Total number of batches                      ...     1842
Average number of points per batch           ...       63
Average number of grid points per atom       ...     5879
Time for grid setup =    2.089 sec

--------------------
COSX GRID GENERATION
--------------------

GRIDX 1
-------
General Integration Accuracy     IntAcc      ... 3.816
Radial Grid Type                 RadialGrid  ... OptM3 with GC (2021)
Angular Grid (max. ang.)         AngularGrid ... 1 (Lebedev-50)
Angular grid pruning method      GridPruning ... 4 (adaptive)
Weight generation scheme         WeightScheme... Becke
Basis function cutoff            BFCut       ... 1.0000e-11
Integration weight cutoff        WCut        ... 1.0000e-14
Angular grids for H and He will be reduced by one unit
Partially contracted basis set               ... on
Rotationally invariant grid construction     ... off

Total number of grid points                  ...    14686
Total number of batches                      ...      240
Average number of points per batch           ...       61
Average number of grid points per atom       ...      734
UseSFitting                                  ... on

GRIDX 2
-------
General Integration Accuracy     IntAcc      ... 4.020
Radial Grid Type                 RadialGrid  ... OptM3 with GC (2021)
Angular Grid (max. ang.)         AngularGrid ... 2 (Lebedev-110)
Angular grid pruning method      GridPruning ... 4 (adaptive)
Weight generation scheme         WeightScheme... Becke
Basis function cutoff            BFCut       ... 1.0000e-11
Integration weight cutoff        WCut        ... 1.0000e-14
Angular grids for H and He will be reduced by one unit
Partially contracted basis set               ... on
Rotationally invariant grid construction     ... off

Total number of grid points                  ...    34478
Total number of batches                      ...      548
Average number of points per batch           ...       62
Average number of grid points per atom       ...     1724
UseSFitting                                  ... on

GRIDX 3
-------
General Integration Accuracy     IntAcc      ... 4.338
Radial Grid Type                 RadialGrid  ... OptM3 with GC (2021)
Angular Grid (max. ang.)         AngularGrid ... 3 (Lebedev-194)
Angular grid pruning method      GridPruning ... 4 (adaptive)
Weight generation scheme         WeightScheme... Becke
Basis function cutoff            BFCut       ... 1.0000e-11
Integration weight cutoff        WCut        ... 1.0000e-14
Angular grids for H and He will be reduced by one unit
Partially contracted basis set               ... on
Rotationally invariant grid construction     ... off

Total number of grid points                  ...    76042
Total number of batches                      ...     1198
Average number of points per batch           ...       63
Average number of grid points per atom       ...     3802
UseSFitting                                  ... on

Time for X-Grid setup             =    4.767 sec

--------------
SCF ITERATIONS
--------------
ITER       Energy         Delta-E        Max-DP      RMS-DP      [F,P]     Damp
               ***  Starting incremental Fock matrix formation  ***
  0   -760.2533330264   0.000000000000 0.22355992  0.00659649  0.0620510 0.7000
  1   -760.3440432212  -0.090710194789 0.13772482  0.00417936  0.0347272 0.7000
                               ***Turning on DIIS***
  2   -760.3812312270  -0.037188005818 0.20680533  0.00778186  0.0182180 0.0000
  3   -760.4403576705  -0.059126443471 0.10180903  0.00318204  0.0177936 0.0000
  4   -760.4527750930  -0.012417422527 0.01058802  0.00039348  0.0046343 0.0000
                      *** Initiating the SOSCF procedure ***
                           *** Shutting down DIIS ***
                      *** Re-Reading the Fockian *** 
                      *** Removing any level shift *** 
ITER      Energy       Delta-E        Grad      Rot      Max-DP    RMS-DP
  5   -760.45339196  -0.0006168702  0.000598  0.000598  0.002701  0.000114
               *** Restarting incremental Fock matrix formation ***
  6   -760.45336184   0.0000301184  0.000546  0.001371  0.005672  0.000185
  7   -760.45334585   0.0000159941  0.000900  0.000744  0.003477  0.000119
  8   -760.45337249  -0.0000266356  0.000014  0.000163  0.000217  0.000007
  9   -760.45337242   0.0000000632  0.000036  0.000167  0.000082  0.000003
 10   -760.45337250  -0.0000000737  0.000006  0.000027  0.000129  0.000004
 11   -760.45337252  -0.0000000197  0.000007  0.000014  0.000062  0.000002
 12   -760.45337249   0.0000000227  0.000005  0.000025  0.000054  0.000002
 13   -760.45337247   0.0000000284  0.000012  0.000017  0.000045  0.000001
                  ***Gradient check signals convergence***
              ***Rediagonalizing the Fockian in SOSCF/NRSCF***

               *****************************************************
               *                     SUCCESS                       *
               *           SCF CONVERGED AFTER  14 CYCLES          *
               *****************************************************

Old exchange energy                            =    -20.643543281 Eh
New exchange energy                            =    -20.643534479 Eh
Exchange energy change after final integration =      0.000008802 Eh
Total energy after final integration           =   -760.453363692 Eh
Final COS-X integration done in                =    36.540 sec

----------------
TOTAL SCF ENERGY
----------------

Total Energy       :         -760.45336369 Eh          -20692.98804 eV

Components:
Nuclear Repulsion  :         1423.63588175 Eh           38739.10180 eV
Electronic Energy  :        -2184.08924544 Eh          -59432.08984 eV
One Electron Energy:        -3852.16996260 Eh         -104822.87377 eV
Two Electron Energy:         1668.08071716 Eh           45390.78394 eV
Max COSX asymmetry :            0.00001301 Eh               0.00035 eV

Virial components:
Potential Energy   :        -1513.34075819 Eh          -41180.09559 eV
Kinetic Energy     :          752.88739450 Eh           20487.10755 eV
Virial Ratio       :            2.01004927


DFT components:
N(Alpha)           :       59.999885148474 electrons
N(Beta)            :       59.999885148474 electrons
N(Total)           :      119.999770296949 electrons
E(X)               :      -82.227412878531 Eh       
E(C)               :       -4.937265703330 Eh       
E(XC)              :      -87.164678581861 Eh       
DFET-embed. en.    :        0.000000000000 Eh       

---------------
SCF CONVERGENCE
---------------

  Last Energy change         ...   -2.9039e-08  Tolerance :   1.0000e-08
  Last MAX-Density change    ...    2.9031e-15  Tolerance :   1.0000e-07
  Last RMS-Density change    ...    4.5240e-17  Tolerance :   5.0000e-09
  Last Orbital Gradient      ...    3.4502e-07  Tolerance :   1.0000e-05
  Last Orbital Rotation      ...    4.4329e-06  Tolerance :   1.0000e-05

             **** THE GBW FILE WAS UPDATED (C20.gbw) ****
             **** DENSITY C20.scfp WAS UPDATED ****
             **** ENERGY FILE WAS UPDATED (C20.en.tmp) ****
             **** THE GBW FILE WAS UPDATED (C20.gbw) ****
             **** DENSITY C20.scfp WAS UPDATED ****
----------------
ORBITAL ENERGIES
----------------

  NO   OCC          E(Eh)            E(eV) 
   0   2.0000     -10.262939      -279.2688 
   1   2.0000     -10.262932      -279.2686 
   2   2.0000     -10.262883      -279.2672 
   3   2.0000     -10.262852      -279.2664 
   4   2.0000     -10.262822      -279.2656 
   5   2.0000     -10.262674      -279.2616 
   6   2.0000     -10.262655      -279.2610 
   7   2.0000     -10.262650      -279.2609 
   8   2.0000     -10.262578      -279.2589 
   9   2.0000     -10.262577      -279.2589 
  10   2.0000     -10.262533      -279.2577 
  11   2.0000     -10.262518      -279.2573 
  12   2.0000     -10.233747      -278.4744 
  13   2.0000     -10.233732      -278.4740 
  14   2.0000     -10.233537      -278.4687 
  15   2.0000     -10.233527      -278.4684 
  16   2.0000     -10.233449      -278.4663 
  17   2.0000     -10.233441      -278.4661 
  18   2.0000     -10.233389      -278.4647 
  19   2.0000     -10.233388      -278.4646 
  20   2.0000      -1.021615       -27.7996 
  21   2.0000      -0.935759       -25.4633 
  22   2.0000      -0.935647       -25.4602 
  23   2.0000      -0.935575       -25.4583 
  24   2.0000      -0.801088       -21.7987 
  25   2.0000      -0.800954       -21.7951 
  26   2.0000      -0.800937       -21.7946 
  27   2.0000      -0.794877       -21.6297 
  28   2.0000      -0.794815       -21.6280 
  29   2.0000      -0.656040       -17.8518 
  30   2.0000      -0.643402       -17.5078 
  31   2.0000      -0.643341       -17.5062 
  32   2.0000      -0.643301       -17.5051 
  33   2.0000      -0.621884       -16.9223 
  34   2.0000      -0.621857       -16.9216 
  35   2.0000      -0.621778       -16.9195 
  36   2.0000      -0.503705       -13.7065 
  37   2.0000      -0.493469       -13.4280 
  38   2.0000      -0.491742       -13.3810 
  39   2.0000      -0.491716       -13.3803 
  40   2.0000      -0.491657       -13.3787 
  41   2.0000      -0.452854       -12.3228 
  42   2.0000      -0.452788       -12.3210 
  43   2.0000      -0.450025       -12.2458 
  44   2.0000      -0.449938       -12.2434 
  45   2.0000      -0.449858       -12.2412 
  46   2.0000      -0.417003       -11.3472 
  47   2.0000      -0.416999       -11.3471 
  48   2.0000      -0.416909       -11.3447 
  49   2.0000      -0.379176       -10.3179 
  50   2.0000      -0.379081       -10.3153 
  51   2.0000      -0.376237       -10.2379 
  52   2.0000      -0.376186       -10.2365 
  53   2.0000      -0.376151       -10.2356 
  54   2.0000      -0.281128        -7.6499 
  55   2.0000      -0.281110        -7.6494 
  56   2.0000      -0.281094        -7.6490 
  57   2.0000      -0.270651        -7.3648 
  58   2.0000      -0.270619        -7.3639 
  59   2.0000      -0.188380        -5.1261 
  60   0.0000      -0.127721        -3.4755 
  61   0.0000      -0.127624        -3.4728 
  62   0.0000      -0.127560        -3.4711 
  63   0.0000      -0.067569        -1.8386 
  64   0.0000      -0.067408        -1.8343 
  65   0.0000      -0.067289        -1.8310 
  66   0.0000      -0.040624        -1.1054 
  67   0.0000      -0.023851        -0.6490 
  68   0.0000      -0.023659        -0.6438 
  69   0.0000      -0.023523        -0.6401 
  70   0.0000       0.087634         2.3847 
  71   0.0000       0.087825         2.3898 
  72   0.0000       0.087897         2.3918 
  73   0.0000       0.201270         5.4768 
  74   0.0000       0.202145         5.5006 
  75   0.0000       0.202271         5.5041 
  76   0.0000       0.202378         5.5070 
  77   0.0000       0.209513         5.7011 
  78   0.0000       0.209646         5.7048 
  79   0.0000       0.218418         5.9435 
  80   0.0000       0.218473         5.9450 
  81   0.0000       0.218511         5.9460 
  82   0.0000       0.220066         5.9883 
  83   0.0000       0.220125         5.9899 
  84   0.0000       0.220208         5.9922 
  85   0.0000       0.369211        10.0467 
  86   0.0000       0.369259        10.0480 
  87   0.0000       0.369325        10.0498 
  88   0.0000       0.375409        10.2154 
  89   0.0000       0.375444        10.2163 
  90   0.0000       0.375510        10.2181 
  91   0.0000       0.406821        11.0702 
  92   0.0000       0.406988        11.0747 
  93   0.0000       0.407079        11.0772 
  94   0.0000       0.409894        11.1538 
  95   0.0000       0.410075        11.1587 
  96   0.0000       0.411499        11.1975 
  97   0.0000       0.411549        11.1988 
  98   0.0000       0.411600        11.2002 
  99   0.0000       0.417632        11.3643 
 100   0.0000       0.417697        11.3661 
 101   0.0000       0.417733        11.3671 
 102   0.0000       0.427721        11.6389 
 103   0.0000       0.427809        11.6413 
 104   0.0000       0.428038        11.6475 
 105   0.0000       0.441780        12.0215 
 106   0.0000       0.462969        12.5980 
 107   0.0000       0.463005        12.5990 
 108   0.0000       0.463019        12.5994 
 109   0.0000       0.463170        12.6035 
 110   0.0000       0.473308        12.8794 
 111   0.0000       0.483995        13.1702 
 112   0.0000       0.484024        13.1710 
 113   0.0000       0.484242        13.1769 
 114   0.0000       0.516266        14.0483 
 115   0.0000       0.516430        14.0528 
 116   0.0000       0.541952        14.7473 
 117   0.0000       0.541961        14.7475 
 118   0.0000       0.542038        14.7496 
 119   0.0000       0.569872        15.5070 
 120   0.0000       0.570063        15.5122 
 121   0.0000       0.572159        15.5692 
 122   0.0000       0.572294        15.5729 
 123   0.0000       0.572506        15.5787 
 124   0.0000       0.585599        15.9350 
 125   0.0000       0.585672        15.9369 
 126   0.0000       0.585787        15.9401 
 127   0.0000       0.589411        16.0387 
 128   0.0000       0.594908        16.1883 
 129   0.0000       0.594981        16.1903 
 130   0.0000       0.595060        16.1924 
 131   0.0000       0.637303        17.3419 
 132   0.0000       0.637386        17.3442 
 133   0.0000       0.637519        17.3478 
 134   0.0000       0.655070        17.8254 
 135   0.0000       0.655163        17.8279 
 136   0.0000       0.655312        17.8320 
 137   0.0000       0.718321        19.5465 
 138   0.0000       0.718354        19.5474 
 139   0.0000       0.722161        19.6510 
 140   0.0000       0.722322        19.6554 
 141   0.0000       0.722435        19.6585 
 142   0.0000       0.729500        19.8507 
 143   0.0000       0.729573        19.8527 
 144   0.0000       0.729643        19.8546 
 145   0.0000       0.734035        19.9741 
 146   0.0000       0.764134        20.7932 
 147   0.0000       0.764157        20.7938 
 148   0.0000       0.764196        20.7948 
 149   0.0000       0.810311        22.0497 
 150   0.0000       0.810374        22.0514 
 151   0.0000       0.810692        22.0600 
 152   0.0000       0.823571        22.4105 
 153   0.0000       0.823666        22.4131 
 154   0.0000       0.823935        22.4204 
 155   0.0000       0.835477        22.7345 
 156   0.0000       0.839857        22.8537 
 157   0.0000       0.839922        22.8554 
 158   0.0000       0.840165        22.8620 
 159   0.0000       0.862020        23.4568 
 160   0.0000       0.862089        23.4586 
 161   0.0000       0.869051        23.6481 
 162   0.0000       0.869112        23.6497 
 163   0.0000       0.869176        23.6515 
 164   0.0000       0.910740        24.7825 
 165   0.0000       0.910939        24.7879 
 166   0.0000       0.911078        24.7917 
 167   0.0000       0.934167        25.4200 
 168   0.0000       0.934440        25.4274 
 169   0.0000       0.989224        26.9181 
 170   0.0000       0.989233        26.9184 
 171   0.0000       0.989348        26.9215 
 172   0.0000       1.004538        27.3349 
 173   0.0000       1.567461        42.6528 
 174   0.0000       1.567521        42.6544 
 175   0.0000       1.567712        42.6596 
 176   0.0000       1.568207        42.6731 
 177   0.0000       1.568709        42.6867 
 178   0.0000       1.569555        42.7098 
 179   0.0000       1.608197        43.7613 
 180   0.0000       1.626398        44.2566 
 181   0.0000       1.626582        44.2615 
 182   0.0000       1.655365        45.0448 
 183   0.0000       1.655370        45.0449 
 184   0.0000       1.658947        45.1422 
 185   0.0000       1.659225        45.1498 
 186   0.0000       1.659774        45.1647 
 187   0.0000       1.670380        45.4533 
 188   0.0000       1.670784        45.4643 
 189   0.0000       1.670816        45.4652 
 190   0.0000       1.673348        45.5341 
 191   0.0000       1.682770        45.7905 
 192   0.0000       1.699282        46.2398 
 193   0.0000       1.699441        46.2441 
 194   0.0000       1.699823        46.2545 
 195   0.0000       1.737484        47.2793 
 196   0.0000       1.737595        47.2824 
 197   0.0000       1.737884        47.2902 
 198   0.0000       1.767281        48.0902 
 199   0.0000       1.767444        48.0946 
 200   0.0000       1.768237        48.1162 
 201   0.0000       1.768420        48.1212 
 202   0.0000       1.768545        48.1245 
 203   0.0000       1.823504        49.6201 
 204   0.0000       1.823755        49.6269 
 205   0.0000       1.823867        49.6300 
 206   0.0000       1.863631        50.7120 
 207   0.0000       1.863738        50.7149 
 208   0.0000       1.863809        50.7168 
 209   0.0000       1.864090        50.7245 
 210   0.0000       1.864253        50.7289 
 211   0.0000       1.877074        51.0778 
 212   0.0000       1.877222        51.0818 
 213   0.0000       1.877507        51.0895 
 214   0.0000       1.925528        52.3963 
 215   0.0000       1.925835        52.4046 
 216   0.0000       1.935772        52.6750 
 217   0.0000       1.936092        52.6837 
 218   0.0000       1.936173        52.6859 
 219   0.0000       1.949716        53.0545 
 220   0.0000       1.949951        53.0609 
 221   0.0000       1.950398        53.0730 
 222   0.0000       1.976557        53.7849 
 223   0.0000       1.977127        53.8004 
 224   0.0000       1.977392        53.8076 
 225   0.0000       2.036677        55.4208 
 226   0.0000       2.038792        55.4784 
 227   0.0000       2.057281        55.9815 
 228   0.0000       2.057507        55.9876 
 229   0.0000       2.057701        55.9929 
 230   0.0000       2.204005        59.9740 
 231   0.0000       2.204493        59.9873 
 232   0.0000       2.204963        60.0001 
 233   0.0000       2.330363        63.4124 
 234   0.0000       2.330491        63.4159 
 235   0.0000       2.330707        63.4218 
 236   0.0000       2.375661        64.6450 
 237   0.0000       2.375872        64.6508 
 238   0.0000       2.375995        64.6541 
 239   0.0000       2.428301        66.0774 
 240   0.0000       2.428492        66.0826 
 241   0.0000       2.462886        67.0185 
 242   0.0000       2.482627        67.5557 
 243   0.0000       2.502445        68.0950 
 244   0.0000       2.502567        68.0983 
 245   0.0000       2.502672        68.1012 
 246   0.0000       2.511557        68.3429 
 247   0.0000       2.541390        69.1547 
 248   0.0000       2.541681        69.1627 
 249   0.0000       2.541959        69.1702 
 250   0.0000       2.544142        69.2296 
 251   0.0000       2.544194        69.2310 
 252   0.0000       2.544688        69.2445 
 253   0.0000       2.580370        70.2154 
 254   0.0000       2.580613        70.2220 
 255   0.0000       2.580930        70.2307 
 256   0.0000       2.653104        72.1946 
 257   0.0000       2.653340        72.2011 
 258   0.0000       2.653625        72.2088 
 259   0.0000       2.671720        72.7012 
 260   0.0000       2.671957        72.7077 
 261   0.0000       2.691549        73.2408 
 262   0.0000       2.692058        73.2546 
 263   0.0000       2.732114        74.3446 
 264   0.0000       2.732398        74.3523 
 265   0.0000       2.732514        74.3555 
 266   0.0000       2.737092        74.4801 
 267   0.0000       2.737162        74.4820 
 268   0.0000       2.737259        74.4846 
 269   0.0000       2.761098        75.1333 
 270   0.0000       2.761256        75.1376 
 271   0.0000       2.761608        75.1472 
 272   0.0000       2.940604        80.0179 
 273   0.0000       2.940935        80.0269 
 274   0.0000       2.941442        80.0407 
 275   0.0000       2.986958        81.2792 
 276   0.0000       2.987604        81.2968 
 277   0.0000       2.989313        81.3433 
 278   0.0000       2.989387        81.3454 
 279   0.0000       2.989596        81.3510 

                    ********************************
                    * MULLIKEN POPULATION ANALYSIS *
                    ********************************

-----------------------
MULLIKEN ATOMIC CHARGES
-----------------------
   0 C :    0.169802
   1 C :   -0.113212
   2 C :   -0.115044
   3 C :   -0.114035
   4 C :   -0.113674
   5 C :    0.171327
   6 C :   -0.112309
   7 C :   -0.113944
   8 C :    0.171397
   9 C :    0.169671
  10 C :    0.171419
  11 C :    0.169679
  12 C :   -0.115042
  13 C :   -0.113660
  14 C :   -0.112302
  15 C :   -0.113227
  16 C :   -0.114028
  17 C :    0.171320
  18 C :   -0.113934
  19 C :    0.169798
Sum of atomic charges:    0.0000000

--------------------------------
MULLIKEN REDUCED ORBITAL CHARGES
--------------------------------
  0 C s       :     3.068352  s :     3.068352
      pz      :     0.928120  p :     2.716402
      px      :     0.905409
      py      :     0.882873
      dz2     :     0.010285  d :     0.045444
      dxz     :     0.007899
      dyz     :     0.007054
      dx2y2   :     0.009228
      dxy     :     0.010978
  1 C s       :     3.114876  s :     3.114876
      pz      :     1.016443  p :     2.947728
      px      :     0.956161
      py      :     0.975124
      dz2     :     0.010449  d :     0.050608
      dxz     :     0.009500
      dyz     :     0.007431
      dx2y2   :     0.010261
      dxy     :     0.012967
  2 C s       :     3.115448  s :     3.115448
      pz      :     0.973480  p :     2.948923
      px      :     1.001084
      py      :     0.974358
      dz2     :     0.010140  d :     0.050674
      dxz     :     0.012528
      dyz     :     0.011600
      dx2y2   :     0.009136
      dxy     :     0.007270
  3 C s       :     3.115494  s :     3.115494
      pz      :     1.016271  p :     2.947926
      px      :     0.954962
      py      :     0.976693
      dz2     :     0.010447  d :     0.050616
      dxz     :     0.007406
      dyz     :     0.009528
      dx2y2   :     0.010649
      dxy     :     0.012585
  4 C s       :     3.115029  s :     3.115029
      pz      :     0.960199  p :     2.947989
      px      :     0.992364
      py      :     0.995427
      dz2     :     0.010321  d :     0.050655
      dxz     :     0.011393
      dyz     :     0.010243
      dx2y2   :     0.010743
      dxy     :     0.007957
  5 C s       :     3.067779  s :     3.067779
      pz      :     0.927738  p :     2.715452
      px      :     0.889461
      py      :     0.898253
      dz2     :     0.010298  d :     0.045442
      dxz     :     0.007292
      dyz     :     0.007659
      dx2y2   :     0.012202
      dxy     :     0.007991
  6 C s       :     3.113622  s :     3.113622
      pz      :     0.972852  p :     2.948061
      px      :     0.998733
      py      :     0.976476
      dz2     :     0.010131  d :     0.050626
      dxz     :     0.010965
      dyz     :     0.013128
      dx2y2   :     0.008187
      dxy     :     0.008215
  7 C s       :     3.114401  s :     3.114401
      pz      :     0.957777  p :     2.948855
      px      :     0.993651
      py      :     0.997427
      dz2     :     0.009298  d :     0.050688
      dxz     :     0.009415
      dyz     :     0.008387
      dx2y2   :     0.012941
      dxy     :     0.010647
  8 C s       :     3.067492  s :     3.067492
      pz      :     0.882160  p :     2.715683
      px      :     0.879823
      py      :     0.953701
      dz2     :     0.007886  d :     0.045428
      dxz     :     0.011395
      dyz     :     0.009999
      dx2y2   :     0.007834
      dxy     :     0.008314
  9 C s       :     3.068929  s :     3.068929
      pz      :     0.882630  p :     2.715978
      px      :     0.946588
      py      :     0.886760
      dz2     :     0.007884  d :     0.045422
      dxz     :     0.010095
      dyz     :     0.011300
      dx2y2   :     0.007963
      dxy     :     0.008180
 10 C s       :     3.067460  s :     3.067460
      pz      :     0.882161  p :     2.715693
      px      :     0.879826
      py      :     0.953706
      dz2     :     0.007886  d :     0.045428
      dxz     :     0.011395
      dyz     :     0.009999
      dx2y2   :     0.007834
      dxy     :     0.008314
 11 C s       :     3.068933  s :     3.068933
      pz      :     0.882625  p :     2.715965
      px      :     0.946582
      py      :     0.886757
      dz2     :     0.007884  d :     0.045423
      dxz     :     0.010095
      dyz     :     0.011300
      dx2y2   :     0.007963
      dxy     :     0.008180
 12 C s       :     3.115457  s :     3.115457
      pz      :     0.973478  p :     2.948912
      px      :     1.001085
      py      :     0.974349
      dz2     :     0.010140  d :     0.050674
      dxz     :     0.012528
      dyz     :     0.011600
      dx2y2   :     0.009136
      dxy     :     0.007270
 13 C s       :     3.115013  s :     3.115013
      pz      :     0.960197  p :     2.947992
      px      :     0.992367
      py      :     0.995428
      dz2     :     0.010321  d :     0.050655
      dxz     :     0.011393
      dyz     :     0.010243
      dx2y2   :     0.010743
      dxy     :     0.007957
 14 C s       :     3.113630  s :     3.113630
      pz      :     0.972848  p :     2.948047
      px      :     0.998727
      py      :     0.976472
      dz2     :     0.010130  d :     0.050625
      dxz     :     0.010965
      dyz     :     0.013128
      dx2y2   :     0.008187
      dxy     :     0.008215
 15 C s       :     3.114888  s :     3.114888
      pz      :     1.016447  p :     2.947731
      px      :     0.956162
      py      :     0.975122
      dz2     :     0.010449  d :     0.050608
      dxz     :     0.009500
      dyz     :     0.007431
      dx2y2   :     0.010261
      dxy     :     0.012967
 16 C s       :     3.115493  s :     3.115493
      pz      :     1.016271  p :     2.947920
      px      :     0.954959
      py      :     0.976691
      dz2     :     0.010447  d :     0.050615
      dxz     :     0.007406
      dyz     :     0.009528
      dx2y2   :     0.010649
      dxy     :     0.012584
 17 C s       :     3.067776  s :     3.067776
      pz      :     0.927739  p :     2.715462
      px      :     0.889466
      py      :     0.898258
      dz2     :     0.010298  d :     0.045442
      dxz     :     0.007292
      dyz     :     0.007659
      dx2y2   :     0.012202
      dxy     :     0.007991
 18 C s       :     3.114392  s :     3.114392
      pz      :     0.957778  p :     2.948854
      px      :     0.993647
      py      :     0.997429
      dz2     :     0.009298  d :     0.050688
      dxz     :     0.009415
      dyz     :     0.008387
      dx2y2   :     0.012941
      dxy     :     0.010647
 19 C s       :     3.068350  s :     3.068350
      pz      :     0.928124  p :     2.716408
      px      :     0.905408
      py      :     0.882876
      dz2     :     0.010285  d :     0.045444
      dxz     :     0.007899
      dyz     :     0.007054
      dx2y2   :     0.009228
      dxy     :     0.010978


                     *******************************
                     * LOEWDIN POPULATION ANALYSIS *
                     *******************************

----------------------
LOEWDIN ATOMIC CHARGES
----------------------
   0 C :   -0.069883
   1 C :    0.046949
   2 C :    0.047021
   3 C :    0.047094
   4 C :    0.046944
   5 C :   -0.070576
   6 C :    0.046866
   7 C :    0.046843
   8 C :   -0.070729
   9 C :   -0.070530
  10 C :   -0.070729
  11 C :   -0.070531
  12 C :    0.047022
  13 C :    0.046942
  14 C :    0.046868
  15 C :    0.046949
  16 C :    0.047094
  17 C :   -0.070574
  18 C :    0.046842
  19 C :   -0.069884

-------------------------------
LOEWDIN REDUCED ORBITAL CHARGES
-------------------------------
  0 C s       :     2.888610  s :     2.888610
      pz      :     1.049171  p :     3.070750
      px      :     1.023530
      py      :     0.998049
      dz2     :     0.025769  d :     0.110524
      dxz     :     0.017189
      dyz     :     0.014315
      dx2y2   :     0.023247
      dxy     :     0.030005
  1 C s       :     2.891091  s :     2.891091
      pz      :     0.932997  p :     2.943502
      px      :     1.028218
      py      :     0.982286
      dz2     :     0.024999  d :     0.118458
      dxz     :     0.018285
      dyz     :     0.016921
      dx2y2   :     0.022093
      dxy     :     0.036160
  2 C s       :     2.890783  s :     2.890783
      pz      :     1.034392  p :     2.943551
      px      :     0.970239
      py      :     0.938919
      dz2     :     0.022955  d :     0.118645
      dxz     :     0.031906
      dyz     :     0.028825
      dx2y2   :     0.018852
      dxy     :     0.016107
  3 C s       :     2.891116  s :     2.891116
      pz      :     0.933075  p :     2.943314
      px      :     0.984407
      py      :     1.025831
      dz2     :     0.024988  d :     0.118476
      dxz     :     0.016725
      dyz     :     0.018502
      dx2y2   :     0.026036
      dxy     :     0.032226
  4 C s       :     2.890837  s :     2.890837
      pz      :     1.015641  p :     2.943618
      px      :     0.988754
      py      :     0.939224
      dz2     :     0.022922  d :     0.118600
      dxz     :     0.029965
      dyz     :     0.025939
      dx2y2   :     0.021914
      dxy     :     0.017861
  5 C s       :     2.888512  s :     2.888512
      pz      :     1.049823  p :     3.071520
      px      :     1.006047
      py      :     1.015651
      dz2     :     0.025808  d :     0.110544
      dxz     :     0.015067
      dyz     :     0.016436
      dx2y2   :     0.034426
      dxy     :     0.018808
  6 C s       :     2.890887  s :     2.890887
      pz      :     1.034102  p :     2.943708
      px      :     0.899620
      py      :     1.009986
      dz2     :     0.022926  d :     0.118539
      dxz     :     0.026032
      dyz     :     0.034631
      dx2y2   :     0.017660
      dxy     :     0.017291
  7 C s       :     2.890633  s :     2.890633
      pz      :     0.937128  p :     2.943822
      px      :     1.015948
      py      :     0.990746
      dz2     :     0.023510  d :     0.118702
      dxz     :     0.019088
      dyz     :     0.017725
      dx2y2   :     0.034942
      dxy     :     0.023437
  8 C s       :     2.888552  s :     2.888552
      pz      :     0.997719  p :     3.071677
      px      :     0.994859
      py      :     1.079099
      dz2     :     0.018429  d :     0.110500
      dxz     :     0.032383
      dyz     :     0.024519
      dx2y2   :     0.016950
      dxy     :     0.018219
  9 C s       :     2.888621  s :     2.888621
      pz      :     0.997927  p :     3.071428
      px      :     1.070701
      py      :     1.002801
      dz2     :     0.018418  d :     0.110481
      dxz     :     0.025081
      dyz     :     0.031831
      dx2y2   :     0.017188
      dxy     :     0.017963
 10 C s       :     2.888549  s :     2.888549
      pz      :     0.997720  p :     3.071678
      px      :     0.994862
      py      :     1.079096
      dz2     :     0.018429  d :     0.110502
      dxz     :     0.032383
      dyz     :     0.024520
      dx2y2   :     0.016950
      dxy     :     0.018219
 11 C s       :     2.888621  s :     2.888621
      pz      :     0.997926  p :     3.071430
      px      :     1.070702
      py      :     1.002802
      dz2     :     0.018418  d :     0.110481
      dxz     :     0.025081
      dyz     :     0.031831
      dx2y2   :     0.017188
      dxy     :     0.017963
 12 C s       :     2.890785  s :     2.890785
      pz      :     1.034391  p :     2.943549
      px      :     0.970239
      py      :     0.938920
      dz2     :     0.022955  d :     0.118644
      dxz     :     0.031906
      dyz     :     0.028825
      dx2y2   :     0.018852
      dxy     :     0.016107
 13 C s       :     2.890835  s :     2.890835
      pz      :     1.015640  p :     2.943622
      px      :     0.988755
      py      :     0.939226
      dz2     :     0.022922  d :     0.118601
      dxz     :     0.029965
      dyz     :     0.025939
      dx2y2   :     0.021914
      dxy     :     0.017861
 14 C s       :     2.890892  s :     2.890892
      pz      :     1.034099  p :     2.943704
      px      :     0.899620
      py      :     1.009984
      dz2     :     0.022925  d :     0.118537
      dxz     :     0.026032
      dyz     :     0.034630
      dx2y2   :     0.017659
      dxy     :     0.017290
 15 C s       :     2.891090  s :     2.891090
      pz      :     0.932997  p :     2.943502
      px      :     1.028220
      py      :     0.982286
      dz2     :     0.024999  d :     0.118459
      dxz     :     0.018285
      dyz     :     0.016921
      dx2y2   :     0.022093
[...]
     28       0.080013  -0.051655   0.081795  -0.040395  -0.018503  -0.066252
     29      -0.095311  -0.018016   0.082845   0.010441   0.009175  -0.207072
     30       0.063316   0.110989   0.003895   0.004558   0.000301   0.055087
     31       0.037654  -0.035301   0.106056   0.129253   0.058738   0.038675
     32      -0.096053   0.054734   0.053916  -0.026645  -0.010308   0.208584
     33       0.021875   0.112324   0.044519  -0.121611   0.055674  -0.018922
     34       0.080005  -0.051655   0.081791  -0.040398   0.018498  -0.066264
     35      -0.095310  -0.018014   0.082847   0.010445  -0.009193  -0.207052
     36      -0.083293   0.222087  -0.098205  -0.077725   0.190703   0.063722
     37      -0.113660   0.201403  -0.097356  -0.111681   0.154297   0.088513
     38       0.211353   0.195418  -0.044897   0.242215   0.145365  -0.180096
     39      -0.000546  -0.239103  -0.014355   0.210449   0.053138  -0.091268
     40       0.005926   0.120617  -0.162938  -0.150046   0.075006   0.065778
     41      -0.011692   0.103497   0.344701  -0.000759  -0.266883   0.000469
     42      -0.079367  -0.142036   0.019156   0.074082   0.087563  -0.063321
     43      -0.102457  -0.302695   0.054069   0.098345   0.227889  -0.086460
     44       0.245416  -0.173369   0.061279  -0.218323   0.145958   0.176736
     45       0.344483  -0.040518  -0.084204  -0.120020   0.245754  -0.153234
     46      -0.162128  -0.044871  -0.200316  -0.192458  -0.136895  -0.217068
     47      -0.031578  -0.037319  -0.139007  -0.143978  -0.054444  -0.164774
     48      -0.271023  -0.084686  -0.147400   0.125952  -0.206082   0.155028
     49       0.258761  -0.016291  -0.147314   0.199031   0.191108   0.214709
     50      -0.043979  -0.049856  -0.136465   0.144417  -0.054256   0.164913
     51      -0.011528   0.120283   0.006821   0.049494   0.019942  -0.146921
     52       0.041428  -0.003432   0.112748  -0.062923  -0.030520  -0.158701
     53      -0.115789  -0.003747   0.027050  -0.112301  -0.047109   0.036431
     54      -0.012771  -0.155730   0.201172  -0.225934  -0.115198   0.096729
     55      -0.057706   0.202167   0.153760   0.154427  -0.161129  -0.068139
     56       0.062884  -0.081252  -0.274059   0.006537   0.201562  -0.001890
     57       0.028854   0.096385   0.068618   0.080760  -0.035934   0.103089
     58       0.012173  -0.069950   0.099515  -0.023545   0.011051   0.188930
     59      -0.125246   0.009911   0.024631   0.098389  -0.046754  -0.033281
                 54         55         56         57         58         59    
      0      -0.142928   0.076200  -0.117082   0.089603  -0.122913  -0.028627
      1       0.103652   0.008132  -0.132741  -0.142417   0.013587  -0.150590
      2       0.128730   0.038805   0.075726  -0.104071   0.092824  -0.014581
      3      -0.028464  -0.215783   0.060382   0.017330   0.309492   0.073174
      4      -0.035953  -0.244608   0.143102   0.094106  -0.158957  -0.039300
      5      -0.027982  -0.160872   0.131497   0.105538  -0.081281  -0.011835
      6      -0.077840   0.095302  -0.004282  -0.126179  -0.173542   0.188621
      7      -0.106731   0.049440   0.068121  -0.164218  -0.131073   0.131221
      8       0.208448  -0.062094  -0.165045   0.320966  -0.132298   0.133997
      9       0.028972   0.105976  -0.186626   0.004033  -0.249322  -0.063719
     10       0.036017   0.204657  -0.208430   0.085880   0.241480   0.052857
     11       0.028837   0.102657  -0.209901  -0.009853  -0.083892  -0.015467
     12      -0.241863   0.086949   0.225566   0.250530  -0.014716  -0.059082
     13       0.175663  -0.074747  -0.177138  -0.162356  -0.018720  -0.082529
     14       0.000227  -0.034734  -0.053271   0.062137   0.103816   0.339676
     15      -0.145665   0.066559   0.155520   0.083730   0.051918  -0.131045
     16       0.103505  -0.146307   0.058114   0.078116  -0.110177  -0.071217
     17      -0.128309   0.072745   0.073771  -0.084469   0.092911  -0.014183
     18       0.077990   0.091329   0.078373  -0.064166  -0.070687   0.066226
     19       0.108095   0.043303   0.180718  -0.078314  -0.204880   0.220680
     20      -0.209065  -0.230681  -0.229827   0.171171  -0.131809   0.134980
     21       0.244879  -0.229665  -0.064198  -0.261436   0.049246   0.151591
     22      -0.176826   0.214805   0.104960   0.111133   0.067011   0.210292
     23      -0.001342  -0.009678  -0.008406   0.015163  -0.068174  -0.242614
     24       0.210822   0.133056   0.146429   0.000571  -0.118138   0.095218
     25      -0.010854   0.052644  -0.047636  -0.045626   0.017105   0.021162
     26      -0.056511   0.119648  -0.110506   0.110378   0.091439   0.114200
     27       0.073997  -0.021635   0.070666   0.066973   0.053534  -0.007842
     28      -0.196554  -0.023696   0.036656  -0.185360  -0.105244   0.097478
     29       0.057061  -0.193778   0.008465   0.017777   0.094070   0.117417
     30       0.210920  -0.132987  -0.146366  -0.000527   0.118141  -0.095220
     31      -0.010856  -0.052649   0.047632   0.045629  -0.017103  -0.021162
     32      -0.056485  -0.119676   0.110487  -0.110375  -0.091437  -0.114198
     33       0.074023   0.021662  -0.070642  -0.066962  -0.053534   0.007840
     34      -0.196582   0.023629  -0.036725   0.185322   0.105243  -0.097478
     35       0.056998   0.193811  -0.008444  -0.017786  -0.094072  -0.117417
     36      -0.077826  -0.095333   0.004262   0.126167   0.173540  -0.188622
     37      -0.106720  -0.049485  -0.068155   0.164206   0.131072  -0.131221
     38       0.208428   0.062180   0.165110  -0.320941   0.132302  -0.134000
     39      -0.241715  -0.087029  -0.225644  -0.250579   0.014715   0.059086
     40       0.175554   0.074808   0.177192   0.162391   0.018722   0.082529
     41       0.000204   0.034728   0.053278  -0.062131  -0.103816  -0.339680
     42       0.078038  -0.091296  -0.078346   0.064173   0.070686  -0.066226
     43       0.108154  -0.043257  -0.180677   0.078322   0.204877  -0.220679
     44      -0.209196   0.230594   0.229755  -0.171189   0.131809  -0.134978
     45      -0.028515   0.215791  -0.060405  -0.017350  -0.309492  -0.073176
     46      -0.035985   0.244609  -0.143112  -0.094130   0.158951   0.039298
     47      -0.027982   0.160870  -0.131504  -0.105556   0.081277   0.011834
     48       0.028945  -0.105976   0.186642  -0.004018   0.249321   0.063720
     49       0.036044  -0.204657   0.208436  -0.085857  -0.241476  -0.052856
     50       0.028803  -0.102655   0.209909   0.009869   0.083894   0.015469
     51      -0.145575  -0.066604  -0.155568  -0.083764  -0.051919   0.131046
     52       0.103485   0.146356  -0.058081  -0.078110   0.110177   0.071215
     53      -0.128277  -0.072796  -0.073811   0.084451  -0.092914   0.014183
     54       0.244729   0.229749   0.064276   0.261482  -0.049245  -0.151594
     55      -0.176700  -0.214867  -0.105012  -0.111167  -0.067012  -0.210293
     56      -0.001339   0.009681   0.008401  -0.015165   0.068175   0.242618
     57      -0.142924  -0.076265   0.117043  -0.089614   0.122914   0.028629
     58       0.103592  -0.008110   0.132775   0.142450  -0.013583   0.150592
     59       0.128751  -0.038754  -0.075683   0.104088  -0.092822   0.014579


-----------
IR SPECTRUM
-----------

 Mode   freq       eps      Int      T**2         TX        TY        TZ
       cm**-1   L/(mol*cm) km/mol    a.u.
----------------------------------------------------------------------------
  9:    461.67   0.000000    0.00  0.000000  (-0.000087  0.000206 -0.000468)
 10:    547.03   0.002263   11.44  0.001291  ( 0.015498 -0.005952  0.031864)
 11:    547.32   0.002244   11.34  0.001279  (-0.024515 -0.025062  0.007092)
 12:    547.55   0.002259   11.42  0.001287  ( 0.020991 -0.024895 -0.015068)
 13:    555.58   0.000000    0.00  0.000000  (-0.000001 -0.000001  0.000000)
 14:    555.99   0.000000    0.00  0.000000  ( 0.000001  0.000001 -0.000001)
 15:    642.75   0.000002    0.01  0.000001  (-0.000513  0.000373  0.000816)
 16:    642.87   0.000002    0.01  0.000001  ( 0.000609  0.000824  0.000043)
 17:    643.02   0.000003    0.02  0.000002  (-0.000864  0.000358 -0.000875)
 18:    649.28   0.000001    0.00  0.000000  (-0.000256 -0.000202  0.000398)
 19:    649.45   0.000000    0.00  0.000000  (-0.000167  0.000304  0.000103)
 20:    713.28   0.000000    0.00  0.000000  ( 0.000000 -0.000000  0.000001)
 21:    714.09   0.000000    0.00  0.000000  ( 0.000001  0.000000  0.000000)
 22:    715.41   0.000000    0.00  0.000000  ( 0.000001 -0.000001  0.000003)
 23:    716.67   0.000119    0.60  0.000052  (-0.003944  0.000996 -0.005923)
 24:    717.07   0.000115    0.58  0.000050  ( 0.005329  0.003571 -0.002966)
 25:    717.14   0.000115    0.58  0.000050  (-0.002567  0.005971  0.002804)
 26:    768.01   0.000000    0.00  0.000000  (-0.000000 -0.000000 -0.000000)
 27:    768.39   0.000000    0.00  0.000000  (-0.000000 -0.000000 -0.000000)
 28:    768.57   0.000000    0.00  0.000000  ( 0.000000  0.000000  0.000000)
 29:    815.01   0.000000    0.00  0.000000  ( 0.000000 -0.000000 -0.000000)
 30:    858.01   0.000000    0.00  0.000000  (-0.000000 -0.000000 -0.000000)
 31:    929.74   0.003546   17.92  0.001190  (-0.001134 -0.013412  0.031765)
 32:    930.05   0.003551   17.95  0.001191  (-0.034465 -0.001012 -0.001624)
 33:    930.43   0.003581   18.10  0.001201  (-0.001486  0.031882  0.013508)
 34:    997.45   0.000000    0.00  0.000000  ( 0.000000 -0.000001  0.000000)
 35:    998.66   0.000000    0.00  0.000000  ( 0.000000 -0.000000  0.000000)
 36:   1000.29   0.000000    0.00  0.000000  ( 0.000000  0.000000 -0.000000)
 37:   1119.39   0.000000    0.00  0.000000  ( 0.000000  0.000001 -0.000000)
 38:   1119.53   0.000000    0.00  0.000000  ( 0.000000  0.000000  0.000000)
 39:   1187.89   0.003313   16.74  0.000870  ( 0.021449 -0.003345  0.019976)
 40:   1189.12   0.003211   16.23  0.000843  (-0.019655 -0.000494  0.021358)
 41:   1189.71   0.003295   16.65  0.000864  (-0.003154 -0.029059 -0.003135)
 42:   1198.48   0.000000    0.00  0.000000  ( 0.000000 -0.000000  0.000001)
 43:   1199.43   0.000000    0.00  0.000000  ( 0.000003  0.000001 -0.000003)
 44:   1199.68   0.000000    0.00  0.000000  (-0.000000 -0.000000  0.000001)
 45:   1219.01   0.005106   25.80  0.001307  (-0.008151 -0.032242  0.014178)
 46:   1219.16   0.005183   26.19  0.001327  ( 0.021834 -0.017077 -0.023627)
 47:   1219.90   0.005178   26.17  0.001325  (-0.027920 -0.003919 -0.023014)
 48:   1275.90   0.015618   78.92  0.003820  (-0.013686 -0.022489  0.055917)
 49:   1276.35   0.015397   77.81  0.003765  (-0.057498  0.020751 -0.005286)
 50:   1276.79   0.015303   77.33  0.003740  (-0.016033 -0.053550 -0.024809)
 51:   1281.08   0.000065    0.33  0.000016  (-0.001830  0.000113  0.003542)
 52:   1298.52   0.000000    0.00  0.000000  (-0.000000  0.000003  0.000000)
 53:   1318.63   0.000009    0.05  0.000002  ( 0.001121 -0.000045 -0.000944)
 54:   1319.48   0.000001    0.00  0.000000  ( 0.000213  0.000283 -0.000007)
 55:   1322.09   0.000000    0.00  0.000000  ( 0.000000  0.000000  0.000000)
 56:   1323.06   0.000000    0.00  0.000000  ( 0.000000  0.000000 -0.000001)
 57:   1324.46   0.000000    0.00  0.000000  (-0.000000 -0.000000  0.000000)
 58:   1419.92   0.000000    0.00  0.000000  (-0.000000 -0.000000  0.000000)
 59:   1420.85   0.000000    0.00  0.000000  ( 0.000000  0.000000 -0.000000)

* The epsilon (eps) is given for a Dirac delta lineshape.
** The dipole moment derivative (T) already includes vibrational overlap.

The first frequency considered to be a vibration is 9
The total number of vibrations considered is 51


--------------------------
THERMOCHEMISTRY AT 298.15K
--------------------------

Temperature         ... 298.15 K
Pressure            ... 1.00 atm
Total Mass          ... 240.22 AMU

Throughout the following assumptions are being made:
  (1) The electronic state is orbitally nondegenerate
  (2) There are no thermally accessible electronically excited states
  (3) Hindered rotations indicated by low frequency modes are not
      treated as such but are treated as vibrations and this may
      cause some error
  (4) All equations used are the standard statistical mechanics
      equations for an ideal gas
  (5) All vibrations are strictly harmonic

freq.     461.67  E(vib)   ...       0.16 
freq.     547.03  E(vib)   ...       0.12 
freq.     547.32  E(vib)   ...       0.12 
freq.     547.55  E(vib)   ...       0.12 
freq.     555.58  E(vib)   ...       0.12 
freq.     555.99  E(vib)   ...       0.12 
freq.     642.75  E(vib)   ...       0.09 
freq.     642.87  E(vib)   ...       0.09 
freq.     643.02  E(vib)   ...       0.09 
freq.     649.28  E(vib)   ...       0.08 
freq.     649.45  E(vib)   ...       0.08 
freq.     713.28  E(vib)   ...       0.07 
freq.     714.09  E(vib)   ...       0.07 
freq.     715.41  E(vib)   ...       0.07 
freq.     716.67  E(vib)   ...       0.07 
freq.     717.07  E(vib)   ...       0.07 
freq.     717.14  E(vib)   ...       0.07 
freq.     768.01  E(vib)   ...       0.06 
freq.     768.39  E(vib)   ...       0.06 
freq.     768.57  E(vib)   ...       0.06 
freq.     815.01  E(vib)   ...       0.05 
freq.     858.01  E(vib)   ...       0.04 
freq.     929.74  E(vib)   ...       0.03 
freq.     930.05  E(vib)   ...       0.03 
freq.     930.43  E(vib)   ...       0.03 
freq.     997.45  E(vib)   ...       0.02 
freq.     998.66  E(vib)   ...       0.02 
freq.    1000.29  E(vib)   ...       0.02 
freq.    1119.39  E(vib)   ...       0.01 
freq.    1119.53  E(vib)   ...       0.01 
freq.    1187.89  E(vib)   ...       0.01 
freq.    1189.12  E(vib)   ...       0.01 
freq.    1189.71  E(vib)   ...       0.01 
freq.    1198.48  E(vib)   ...       0.01 
freq.    1199.43  E(vib)   ...       0.01 
freq.    1199.68  E(vib)   ...       0.01 
freq.    1219.01  E(vib)   ...       0.01 
freq.    1219.16  E(vib)   ...       0.01 
freq.    1219.90  E(vib)   ...       0.01 
freq.    1275.90  E(vib)   ...       0.01 
freq.    1276.35  E(vib)   ...       0.01 
freq.    1276.79  E(vib)   ...       0.01 
freq.    1281.08  E(vib)   ...       0.01 
freq.    1298.52  E(vib)   ...       0.01 
freq.    1318.63  E(vib)   ...       0.01 
freq.    1319.48  E(vib)   ...       0.01 
freq.    1322.09  E(vib)   ...       0.01 
freq.    1323.06  E(vib)   ...       0.01 
freq.    1324.46  E(vib)   ...       0.01 
freq.    1419.92  E(vib)   ...       0.00 
freq.    1420.85  E(vib)   ...       0.00 

------------
INNER ENERGY
------------

The inner energy is: U= E(el) + E(ZPE) + E(vib) + E(rot) + E(trans)
    E(el)   - is the total energy from the electronic structure calculation
              = E(kin-el) + E(nuc-el) + E(el-el) + E(nuc-nuc)
    E(ZPE)  - the the zero temperature vibrational energy from the frequency calculation
    E(vib)  - the the finite temperature correction to E(ZPE) due to population
              of excited vibrational states
    E(rot)  - is the rotational thermal energy
    E(trans)- is the translational thermal energy

Summary of contributions to the inner energy U:
Electronic energy                ...   -760.45345010 Eh
Zero point energy                ...      0.11258522 Eh      70.65 kcal/mol
Thermal vibrational correction   ...      0.00350087 Eh       2.20 kcal/mol
Thermal rotational correction    ...      0.00141627 Eh       0.89 kcal/mol
Thermal translational correction ...      0.00141627 Eh       0.89 kcal/mol
-----------------------------------------------------------------------
Total thermal energy                   -760.33453147 Eh


Summary of corrections to the electronic energy:
(perhaps to be used in another calculation)
Total thermal correction                  0.00633342 Eh       3.97 kcal/mol
Non-thermal (ZPE) correction              0.11258522 Eh      70.65 kcal/mol
-----------------------------------------------------------------------
Total correction                          0.11891863 Eh      74.62 kcal/mol


--------
ENTHALPY
--------

The enthalpy is H = U + kB*T
                kB is Boltzmann's constant
Total free energy                 ...   -760.33453147 Eh 
Thermal Enthalpy correction       ...      0.00094421 Eh       0.59 kcal/mol
-----------------------------------------------------------------------
Total Enthalpy                    ...   -760.33358726 Eh


Note: Rotational entropy computed according to Herzberg 
Infrared and Raman Spectra, Chapter V,1, Van Nostrand Reinhold, 1945 
Point Group:  Ci, Symmetry Number:   1  
Rotational constants in cm-1:     0.025463     0.025460     0.025445 

Vibrational entropy computed according to the QRRHO of S. Grimme
Chem.Eur.J. 2012 18 9955


-------
ENTROPY
-------

The entropy contributions are T*S = T*(S(el)+S(vib)+S(rot)+S(trans))
     S(el)   - electronic entropy
     S(vib)  - vibrational entropy
     S(rot)  - rotational entropy
     S(trans)- translational entropy
The entropies will be listed as multiplied by the temperature to get
units of energy

Electronic entropy                ...      0.00000000 Eh      0.00 kcal/mol
Vibrational entropy               ...      0.00456589 Eh      2.87 kcal/mol
Rotational entropy                ...      0.01470966 Eh      9.23 kcal/mol
Translational entropy             ...      0.02011244 Eh     12.62 kcal/mol
-----------------------------------------------------------------------
Final entropy term                ...      0.03938800 Eh     24.72 kcal/mol

In case the symmetry of your molecule has not been determined correctly
or in case you have a reason to use a different symmetry number we print 
out the resulting rotational entropy values for sn=1,12 :
 --------------------------------------------------------
|  sn= 1 | S(rot)=       0.01470966 Eh      9.23 kcal/mol|
|  sn= 2 | S(rot)=       0.01405520 Eh      8.82 kcal/mol|
|  sn= 3 | S(rot)=       0.01367237 Eh      8.58 kcal/mol|
|  sn= 4 | S(rot)=       0.01340075 Eh      8.41 kcal/mol|
|  sn= 5 | S(rot)=       0.01319006 Eh      8.28 kcal/mol|
|  sn= 6 | S(rot)=       0.01301792 Eh      8.17 kcal/mol|
|  sn= 7 | S(rot)=       0.01287237 Eh      8.08 kcal/mol|
|  sn= 8 | S(rot)=       0.01274629 Eh      8.00 kcal/mol|
|  sn= 9 | S(rot)=       0.01263508 Eh      7.93 kcal/mol|
|  sn=10 | S(rot)=       0.01253560 Eh      7.87 kcal/mol|
|  sn=11 | S(rot)=       0.01244561 Eh      7.81 kcal/mol|
|  sn=12 | S(rot)=       0.01236346 Eh      7.76 kcal/mol|
 --------------------------------------------------------


-------------------
GIBBS FREE ENERGY
-------------------

The Gibbs free energy is G = H - T*S

Total enthalpy                    ...   -760.33358726 Eh 
Total entropy correction          ...     -0.03938800 Eh    -24.72 kcal/mol
-----------------------------------------------------------------------
Final Gibbs free energy         ...   -760.37297525 Eh

For completeness - the Gibbs free energy minus the electronic energy
G-E(el)                           ...      0.08047485 Eh     50.50 kcal/mol


Timings for individual modules:

Sum of individual times         ...     3225.175 sec (=  53.753 min)
GTO integral calculation        ...        3.222 sec (=   0.054 min)   0.1 %
SCF iterations                  ...      741.719 sec (=  12.362 min)  23.0 %
SCF Gradient evaluation         ...      154.470 sec (=   2.574 min)   4.8 %
Geometry relaxation             ...        0.407 sec (=   0.007 min)   0.0 %
Analytical frequency calculation...     2325.357 sec (=  38.756 min)  72.1 %
                             ****ORCA TERMINATED NORMALLY****
TOTAL RUN TIME: 0 days 0 hours 53 minutes 46 seconds 477 msec
