
                                 *****************
                                 * O   R   C   A *
                                 *****************

                                            #,                                       
                                            ###                                      
                                            ####                                     
                                            #####                                    
                                            ######                                   
                                           ########,                                 
                                     ,,################,,,,,                         
                               ,,#################################,,                 
                          ,,##########################################,,             
                       ,#########################################, ''#####,          
                    ,#############################################,,   '####,        
                  ,##################################################,,,,####,       
                ,###########''''           ''''###############################       
              ,#####''   ,,,,##########,,,,          '''####'''          '####       
            ,##' ,,,,###########################,,,                        '##       
           ' ,,###''''                  '''############,,,                           
         ,,##''                                '''############,,,,        ,,,,,,###''
      ,#''                                            '''#######################'''  
     '                                                          ''''####''''         
             ,#######,   #######,   ,#######,      ##                                
            ,#'     '#,  ##    ##  ,#'     '#,    #''#        ######   ,####,        
            ##       ##  ##   ,#'  ##            #'  '#       #        #'  '#        
            ##       ##  #######   ##           ,######,      #####,   #    #        
            '#,     ,#'  ##    ##  '#,     ,#' ,#      #,         ##   #,  ,#        
             '#######'   ##     ##  '#######'  #'      '#     #####' # '####'        



                  #######################################################
                  #                        -***-                        #
                  #          Department of theory and spectroscopy      #
                  #    Directorship and core code : Frank Neese         #
                  #        Max Planck Institute fuer Kohlenforschung    #
                  #                Kaiser Wilhelm Platz 1               #
                  #                 D-45470 Muelheim/Ruhr               #
                  #                      Germany                        #
                  #                                                     #
                  #                  All rights reserved                #
                  #                        -***-                        #
                  #######################################################


                         Program Version 5.0.4 -  RELEASE  -


 With contributions from (in alphabetic order):
   Daniel Aravena         : Magnetic Suceptibility
   Michael Atanasov       : Ab Initio Ligand Field Theory (pilot matlab implementation)
   Alexander A. Auer      : GIAO ZORA, VPT2 properties, NMR spectrum
   Ute Becker             : Parallelization
   Giovanni Bistoni       : ED, misc. LED, open-shell LED, HFLD
   Martin Brehm           : Molecular dynamics
   Dmytro Bykov           : SCF Hessian
   Vijay G. Chilkuri      : MRCI spin determinant printing, contributions to CSF-ICE
   Dipayan Datta          : RHF DLPNO-CCSD density
   Achintya Kumar Dutta   : EOM-CC, STEOM-CC
   Dmitry Ganyushin       : Spin-Orbit,Spin-Spin,Magnetic field MRCI
   Miquel Garcia          : C-PCM and meta-GGA Hessian, CC/C-PCM, Gaussian charge scheme
   Yang Guo               : DLPNO-NEVPT2, F12-NEVPT2, CIM, IAO-localization
   Andreas Hansen         : Spin unrestricted coupled pair/coupled cluster methods
   Benjamin Helmich-Paris : MC-RPA, TRAH-SCF, COSX integrals
   Lee Huntington         : MR-EOM, pCC
   Robert Izsak           : Overlap fitted RIJCOSX, COSX-SCS-MP3, EOM
   Marcus Kettner         : VPT2
   Christian Kollmar      : KDIIS, OOCD, Brueckner-CCSD(T), CCSD density, CASPT2, CASPT2-K
   Simone Kossmann        : Meta GGA functionals, TD-DFT gradient, OOMP2, MP2 Hessian
   Martin Krupicka        : Initial AUTO-CI
   Lucas Lang             : DCDCAS
   Marvin Lechner         : AUTO-CI (C++ implementation), FIC-MRCC
   Dagmar Lenk            : GEPOL surface, SMD
   Dimitrios Liakos       : Extrapolation schemes; Compound Job, initial MDCI parallelization
   Dimitrios Manganas     : Further ROCIS development; embedding schemes
   Dimitrios Pantazis     : SARC Basis sets
   Anastasios Papadopoulos: AUTO-CI, single reference methods and gradients
   Taras Petrenko         : DFT Hessian,TD-DFT gradient, ASA, ECA, R-Raman, ABS, FL, XAS/XES, NRVS
   Peter Pinski           : DLPNO-MP2, DLPNO-MP2 Gradient
   Christoph Reimann      : Effective Core Potentials
   Marius Retegan         : Local ZFS, SOC
   Christoph Riplinger    : Optimizer, TS searches, QM/MM, DLPNO-CCSD(T), (RO)-DLPNO pert. Triples
   Tobias Risthaus        : Range-separated hybrids, TD-DFT gradient, RPA, STAB
   Michael Roemelt        : Original ROCIS implementation
   Masaaki Saitow         : Open-shell DLPNO-CCSD energy and density
   Barbara Sandhoefer     : DKH picture change effects
   Avijit Sen             : IP-ROCIS
   Kantharuban Sivalingam : CASSCF convergence, NEVPT2, FIC-MRCI
   Bernardo de Souza      : ESD, SOC TD-DFT
   Georgi Stoychev        : AutoAux, RI-MP2 NMR, DLPNO-MP2 response
   Willem Van den Heuvel  : Paramagnetic NMR
   Boris Wezisla          : Elementary symmetry handling
   Frank Wennmohs         : Technical directorship


 We gratefully acknowledge several colleagues who have allowed us to
 interface, adapt or use parts of their codes:
   Stefan Grimme, W. Hujo, H. Kruse, P. Pracht,  : VdW corrections, initial TS optimization,
                  C. Bannwarth, S. Ehlert          DFT functionals, gCP, sTDA/sTD-DF
   Ed Valeev, F. Pavosevic, A. Kumar             : LibInt (2-el integral package), F12 methods
   Garnet Chan, S. Sharma, J. Yang, R. Olivares  : DMRG
   Ulf Ekstrom                                   : XCFun DFT Library
   Mihaly Kallay                                 : mrcc  (arbitrary order and MRCC methods)
   Jiri Pittner, Ondrej Demel                    : Mk-CCSD
   Frank Weinhold                                : gennbo (NPA and NBO analysis)
   Christopher J. Cramer and Donald G. Truhlar   : smd solvation model
   Lars Goerigk                                  : TD-DFT with DH, B97 family of functionals
   V. Asgeirsson, H. Jonsson                     : NEB implementation
   FAccTs GmbH                                   : IRC, NEB, NEB-TS, DLPNO-Multilevel, CI-OPT
                                                   MM, QMMM, 2- and 3-layer-ONIOM, Crystal-QMMM,
                                                   LR-CPCM, SF, NACMEs, symmetry and pop. for TD-DFT,
                                                   nearIR, NL-DFT gradient (VV10), updates on ESD,
                                                   ML-optimized integration grids
   S Lehtola, MJT Oliveira, MAL Marques          : LibXC Library
   Liviu Ungur et al                             : ANISO software


 Your calculation uses the libint2 library for the computation of 2-el integrals
 For citations please refer to: http://libint.valeyev.net

 Your ORCA version has been built with support for libXC version: 5.1.0
 For citations please refer to: https://tddft.org/programs/libxc/

 This ORCA versions uses:
   CBLAS   interface :  Fast vector & matrix operations
   LAPACKE interface :  Fast linear algebra routines
   SCALAPACK package :  Parallel linear algebra routines
   Shared memory     :  Shared parallel matrices
   BLAS/LAPACK       :  OpenBLAS 0.3.15  USE64BITINT DYNAMIC_ARCH NO_AFFINITY SkylakeX SINGLE_THREADED
        Core in use  :  SkylakeX
   Copyright (c) 2011-2014, The OpenBLAS Project


Your calculation utilizes the atom-pairwise dispersion correction
based on tight binding partial charges (D4)
Cite in your paper:
E.Caldeweyher, C.Bannwarth, S.Grimme, J.Chem.Phys., (2017), 147, 034112.
E.Caldeweyher, S.Ehlert, A.Hansen, H.Neugebauer, S.Grimme, J.Chem.Phys., (2018), in progress.
   

XCFun DFT library Copyright 2009-2010 Ulf Ekstrom and contributors.
See http://admol.org/xcfun for more information.
This is free software; see the source code for copying conditions.
There is ABSOLUTELY NO WARRANTY; not even for MERCHANTABILITY or FITNESS FOR A PARTICULAR PURPOSE.
For details see the documentation.
Scientific users of this library should cite U. Ekstrom, L. Visscher, R. Bast, A. J. Thorvaldsen and K. Ruud;
J.Chem.Theor.Comp. 2010, DOI: 10.1021/ct100117s
XCFun Version 0.99 

================================================================================

----- Orbital basis set information -----
Your calculation utilizes the basis: def2-SVP
   F. Weigend and R. Ahlrichs, Phys. Chem. Chem. Phys. 7, 3297 (2005).

----- AuxJ basis set information -----
Your calculation utilizes the auxiliary basis: def2/J
   F. Weigend, Phys. Chem. Chem. Phys. 8, 1057 (2006).

================================================================================
                                        WARNINGS
                       Please study these warnings very carefully!
================================================================================


WARNING: Geometry Optimization
  ===> : Switching off AutoStart
         For restart on a previous wavefunction, please use MOREAD

INFO   : the flag for use of the SHARK integral package has been found!

================================================================================
                                       INPUT FILE
================================================================================
NAME = cpcm_opt.inp
|  1> ! OPT wB97X D4 def2-SVP def2/J defgrid2 XYZFILE CPCM(Water)
|  2> %maxcore 3000
|  3> %geom
|  4> maxiter 200
|  5> end
|  6> %PAL NPROCS 1 END
|  7> * xyz 1 1
|  8> C 0.0793792715 1.4730800563 0.0434928504
|  9> C -0.0414715501 0.0151745812 -0.0019026226
| 10> C -0.1392541467 -1.1645488308 -0.03739887
| 11> C -0.2530973077 -2.5400778856 -0.0791871195
| 12> C -0.3541257691 -3.7351307584 -0.1090122706
| 13> C -0.3872666266 -5.1372881731 -0.4043265217
| 14> O -0.7957504143 -5.7985670246 0.6349846295
| 15> H 0.8221253258 1.7601998646 0.7762824937
| 16> H 0.3747603935 1.8605199839 -0.9223087132
| 17> Cl -0.8676903435 1.9158322606 0.3227810059
| 18> H -0.8120152625 -6.7189469099 0.4256308667
| 19> H -0.19959516149999998 -5.5077274547 -1.07163922285
| 20> **                         ****END OF INPUT****
================================================================================

                       *****************************
                       * Geometry Optimization Run *
                       *****************************

Geometry optimization settings:
Update method            Update   .... BFGS
Choice of coordinates    CoordSys .... Z-matrix Internals
Initial Hessian          InHess   .... Almoef's Model

Convergence Tolerances:
Energy Change            TolE     ....  5.0000e-06 Eh
Max. Gradient            TolMAXG  ....  3.0000e-04 Eh/bohr
RMS Gradient             TolRMSG  ....  1.0000e-04 Eh/bohr
Max. Displacement        TolMAXD  ....  4.0000e-03 bohr
RMS Displacement         TolRMSD  ....  2.0000e-03 bohr
Strict Convergence                ....  False
------------------------------------------------------------------------------
                        ORCA OPTIMIZATION COORDINATE SETUP
------------------------------------------------------------------------------

The optimization will be done in new redundant internal coordinates
Making redundant internal coordinates   ...  (new redundants) done
Evaluating the initial hessian          ...  (Almloef) done
Evaluating the coordinates              ...  done
Calculating the B-matrix                .... done
Calculating the G-matrix                .... done
Diagonalizing the G-matrix              .... done
Small eigenvalue found = 2.306e-02
Small eigenvalue found = 2.781e-02
The first mode is                       ....   13
The number of degrees of freedom        ....   30

    -----------------------------------------------------------------
                    Redundant Internal Coordinates


    -----------------------------------------------------------------
         Definition                    Initial Value    Approx d2E/dq
    -----------------------------------------------------------------
      1. B(C   1,C   0)                  1.4636         0.476759   
      2. B(C   2,C   1)                  1.1843         1.330204   
      3. B(C   3,C   2)                  1.3809         0.646121   
      4. B(C   4,C   3)                  1.1997         1.257105   
      5. B(C   5,C   4)                  1.4333         0.532909   
      6. B(O   6,C   5)                  1.2978         0.785155   
      7. B(H   7,C   0)                  1.0822         0.370610   
      8. B(H   8,C   0)                  1.0817         0.371213   
      9. B(Cl  9,C   1)                  2.0978         0.104127   
     10. B(Cl  9,C   0)                  1.0821         4.344561   
     11. B(H  10,O   6)                  0.9440         0.551373   
     12. B(H  11,C   5)                  0.7860         1.100222   
     13. A(H   7,C   0,H   8)          108.7921         0.293560   
     14. A(C   1,C   0,H   7)          109.9963         0.339299   
     15. A(H   7,C   0,Cl  9)          108.5039         0.525535   
     16. A(C   1,C   0,H   8)          110.5869         0.339391   
     17. A(H   8,C   0,Cl  9)          108.8370         0.525696   
     18. A(C   1,C   0,Cl  9)          110.0780         0.623338   
     19. A(C   2,C   1,Cl  9)          151.0052         0.378683   
     20. A(C   0,C   1,Cl  9)           28.9794         0.318648   
     21. L(C   1,C   2,C   3,Cl  9, 1) 180.0111         0.502995   
     22. L(C   1,C   2,C   3,Cl  9, 2) 179.9556         0.502995   
     23. L(C   2,C   3,C   4,C   5, 1) 180.3257         0.497733   
     24. L(C   2,C   3,C   4,C   5, 2) 179.9983         0.497733   
     25. A(C   3,C   4,C   5)          168.9804         0.480295   
     26. A(C   4,C   5,O   6)          109.9220         0.437858   
     27. A(O   6,C   5,H  11)          120.9922         0.444522   
     28. A(C   4,C   5,H  11)          129.0858         0.417369   
     29. A(C   5,O   6,H  10)          108.9412         0.389515   
     30. A(C   0,Cl  9,C   1)           40.9426         0.489519   
     31. D(Cl  9,C   1,C   0,H   7)    119.5111         0.016759   
     32. D(Cl  9,C   1,C   0,H   8)   -120.2989         0.016759   
     33. D(C   5,C   4,C   0,H   7)   -117.1080         0.001500   
     34. D(C   5,C   4,C   0,Cl  9)    123.4484         0.001500   
     35. D(C   5,C   4,C   0,H   8)      3.1109         0.001500   
     36. D(C   5,C   4,C   1,Cl  9)    123.6262         0.001500   
     37. D(O   6,C   5,C   4,C   3)   -179.7232         0.017624   
     38. D(H  11,C   5,C   4,C   3)      0.2768         0.017624   
     39. D(H  10,O   6,C   5,H  11)      0.0194         0.047304   
     40. D(H  10,O   6,C   5,C   4)   -179.9806         0.047304   
     41. D(C   0,Cl  9,C   1,C   2)    179.8807         0.001688   
     42. D(C   1,Cl  9,C   0,H   8)    121.3496         0.701189   
     43. D(C   1,Cl  9,C   0,H   7)   -120.4151         0.701189   
    -----------------------------------------------------------------

Number of atoms                         .... 12
Number of degrees of freedom            .... 43

         *************************************************************
         *                GEOMETRY OPTIMIZATION CYCLE   1            *
         *************************************************************
---------------------------------
CARTESIAN COORDINATES (ANGSTROEM)
---------------------------------
  C      0.079379    1.473080    0.043493
  C     -0.041472    0.015175   -0.001903
  C     -0.139254   -1.164549   -0.037399
  C     -0.253097   -2.540078   -0.079187
  C     -0.354126   -3.735131   -0.109012
  C     -0.387267   -5.137288   -0.404327
  O     -0.795750   -5.798567    0.634985
  H      0.822125    1.760200    0.776282
  H      0.374760    1.860520   -0.922309
  Cl    -0.867690    1.915832    0.322781
  H     -0.812015   -6.718947    0.425631
  H     -0.199595   -5.507727   -1.071639

----------------------------
CARTESIAN COORDINATES (A.U.)
----------------------------
  NO LB      ZA    FRAG     MASS         X           Y           Z
   0 C     6.0000    0    12.011    0.150005    2.783718    0.082190
   1 C     6.0000    0    12.011   -0.078370    0.028676   -0.003595
   2 C     6.0000    0    12.011   -0.263152   -2.200678   -0.070674
   3 C     6.0000    0    12.011   -0.478285   -4.800052   -0.149642
   4 C     6.0000    0    12.011   -0.669201   -7.058374   -0.206003
   5 C     6.0000    0    12.011   -0.731828   -9.708068   -0.764066
   6 O     8.0000    0    15.999   -1.503750  -10.957704    1.199947
   7 H     1.0000    0     1.008    1.553592    3.326296    1.466961
   8 H     1.0000    0     1.008    0.708195    3.515873   -1.742911
   9 Cl   17.0000    0    35.453   -1.639697    3.620398    0.609968
  10 H     1.0000    0     1.008   -1.534486  -12.696970    0.804326
  11 H     1.0000    0     1.008   -0.377180  -10.408097   -2.025105

--------------------------------
INTERNAL COORDINATES (ANGSTROEM)
--------------------------------
 C      0   0   0     0.000000000000     0.00000000     0.00000000
 C      1   0   0     1.463609935870     0.00000000     0.00000000
 C      2   1   0     1.184300953558   179.94016647     0.00000000
 C      3   2   1     1.380864476950   179.98196435   203.19980152
 C      4   3   2     1.199686483394   179.67433695   175.27222776
 C      5   4   3     1.433301865950   168.98039375   180.02957273
 O      6   5   4     1.297812156386   109.92201109   180.27683403
 H      1   2   3     1.082169185860   109.99629201    44.38988758
 H      1   2   3     1.081726566645   110.58685829   164.57992754
 Cl     1   2   3     1.082114709202   110.07800642   284.87879196
 H      7   6   5     0.944030018882   108.94117568   180.01936903
 H      6   5   4     0.785972061387   129.08578187     0.27683403

---------------------------
INTERNAL COORDINATES (A.U.)
---------------------------
 C      0   0   0     0.000000000000     0.00000000     0.00000000
 C      1   0   0     2.765821945680     0.00000000     0.00000000
 C      2   1   0     2.238004462366   179.94016647     0.00000000
 C      3   2   1     2.609455689495   179.98196435   203.19980152
 C      4   3   2     2.267078900182   179.67433695   175.27222776
 C      5   4   3     2.708547993884   168.98039375   180.02957273
 O      6   5   4     2.452509548844   109.92201109   180.27683403
 H      1   2   3     2.045003391843   109.99629201    44.38988758
 H      1   2   3     2.044166962745   110.58685829   164.57992754
 Cl     1   2   3     2.044900445880   110.07800642   284.87879196
 H      7   6   5     1.783958197887   108.94117568   180.01936903
 H      6   5   4     1.485271944935   129.08578187     0.27683403

---------------------
BASIS SET INFORMATION
---------------------
There are 4 groups of distinct atoms

 Group   1 Type C   : 7s4p1d contracted to 3s2p1d pattern {511/31/1}
 Group   2 Type O   : 7s4p1d contracted to 3s2p1d pattern {511/31/1}
 Group   3 Type H   : 4s1p contracted to 2s1p pattern {31/1}
 Group   4 Type Cl  : 10s7p1d contracted to 4s3p1d pattern {5311/511/1}

Atom   0C    basis set group =>   1
Atom   1C    basis set group =>   1
Atom   2C    basis set group =>   1
Atom   3C    basis set group =>   1
Atom   4C    basis set group =>   1
Atom   5C    basis set group =>   1
Atom   6O    basis set group =>   2
Atom   7H    basis set group =>   3
Atom   8H    basis set group =>   3
Atom   9Cl   basis set group =>   4
Atom  10H    basis set group =>   3
Atom  11H    basis set group =>   3
---------------------------------
AUXILIARY/J BASIS SET INFORMATION
---------------------------------
There are 4 groups of distinct atoms

 Group   1 Type C   : 12s5p4d2f1g contracted to 6s4p3d1f1g pattern {711111/2111/211/2/1}
 Group   2 Type O   : 12s5p4d2f1g contracted to 6s4p3d1f1g pattern {711111/2111/211/2/1}
 Group   3 Type H   : 5s2p1d contracted to 3s1p1d pattern {311/2/1}
 Group   4 Type Cl  : 14s5p5d2f1g contracted to 8s4p3d1f1g pattern {71111111/2111/311/2/1}

Atom   0C    basis set group =>   1
Atom   1C    basis set group =>   1
Atom   2C    basis set group =>   1
Atom   3C    basis set group =>   1
Atom   4C    basis set group =>   1
Atom   5C    basis set group =>   1
Atom   6O    basis set group =>   2
Atom   7H    basis set group =>   3
Atom   8H    basis set group =>   3
Atom   9Cl   basis set group =>   4
Atom  10H    basis set group =>   3
Atom  11H    basis set group =>   3
------------------------------------------------------------------------------
                           ORCA GTO INTEGRAL CALCULATION
                           -- RI-GTO INTEGRALS CHOSEN --
------------------------------------------------------------------------------
------------------------------------------------------------------------------
                   ___                                                        
                  /   \      - P O W E R E D   B Y -                         
                 /     \                                                     
                 |  |  |   _    _      __       _____    __    __             
                 |  |  |  | |  | |    /  \     |  _  \  |  |  /  |          
                  \  \/   | |  | |   /    \    | | | |  |  | /  /          
                 / \  \   | |__| |  /  /\  \   | |_| |  |  |/  /          
                |  |  |   |  __  | /  /__\  \  |    /   |      \           
                |  |  |   | |  | | |   __   |  |    \   |  |\   \          
                \     /   | |  | | |  |  |  |  | |\  \  |  | \   \       
                 \___/    |_|  |_| |__|  |__|  |_| \__\ |__|  \__/        
                                                                              
                      - O R C A' S   B I G   F R I E N D -                    
                                      &                                       
                       - I N T E G R A L  F E E D E R -                       
                                                                              
 v1 FN, 2020, v2 2021                                                         
------------------------------------------------------------------------------


Reading SHARK input file cpcm_opt.SHARKINP.tmp ... ok
----------------------
SHARK INTEGRAL PACKAGE
----------------------

Number of atoms                             ...     12
Number of basis functions                   ...    136
Number of shells                            ...     62
Maximum angular momentum                    ...      2
Integral batch strategy                     ... SHARK/LIBINT Hybrid
RI-J (if used) integral strategy            ... SPLIT-RIJ (Revised 2003 algorithm where possible)
Printlevel                                  ...      1
Contraction scheme used                     ... SEGMENTED contraction
Coulomb Range Separation                    ... NOT USED
Exchange Range Separation                   ... Long Range
   Mu parameter                             ...  0.300000
   Scaling (regular/separated)              ...  0.157706  0.842294
Finite Nucleus Model                        ... NOT USED
Auxiliary Coulomb fitting basis             ... AVAILABLE
   # of basis functions in Aux-J            ...    438
   # of shells in Aux-J                     ...    142
   Maximum angular momentum in Aux-J        ...      4
Auxiliary J/K fitting basis                 ... NOT available
Auxiliary Correlation fitting basis         ... NOT available
Auxiliary 'external' fitting basis          ... NOT available
Integral threshold                          ...     2.500000e-11
Primitive cut-off                           ...     2.500000e-12
Primitive pair pre-selection threshold      ...     2.500000e-12

Calculating pre-screening integrals         ... done (  0.0 sec) Dimension = 62
Organizing shell pair data                  ... done (  0.0 sec)
Shell pair information
Total number of shell pairs                 ...      1953
Shell pairs after pre-screening             ...      1579
Total number of primitive shell pairs       ...      7629
Primitive shell pairs kept                  ...      4452
          la=0 lb=0:    453 shell pairs
          la=1 lb=0:    566 shell pairs
          la=1 lb=1:    193 shell pairs
          la=2 lb=0:    205 shell pairs
          la=2 lb=1:    135 shell pairs
          la=2 lb=2:     27 shell pairs

Calculating one electron integrals          ... done (  0.0 sec)
Calculating RI/J V-Matrix + Cholesky decomp.... done (  0.0 sec)
Calculating Nuclear repulsion               ... done (  0.0 sec) ENN=    357.313482652427 Eh

SHARK setup successfully completed in   0.2 seconds

Maximum memory used throughout the entire GTOINT-calculation: 15.7 MB
-------------------------------------------------------------------------------
                                 ORCA SCF
-------------------------------------------------------------------------------

------------
SCF SETTINGS
------------
Hamiltonian:
 Density Functional     Method          .... DFT(GTOs)
 Exchange Functional    Exchange        .... WB97X
 Correlation Functional Correlation     .... WB97X
 Gradients option       PostSCFGGA      .... off
 Hybrid DFT is turned on
   Fraction HF Exchange ScalHFX         ....  0.157706
   Scaling of DF-GGA-X  ScalDFX         ....  0.000000
   Scaling of DF-GGA-C  ScalDFC         ....  1.000000
   Scaling of DF-LDA-C  ScalLDAC        ....  1.000000
   Perturbative correction              ....  0.000000
   Density functional embedding theory  .... OFF
 Long-range corrected/Screened/Range-Separated Hybrid DFT is turned on
   Amount of maximum screened exact exchange              ....  0.842294
   Range separation parameter mu (erf(mu*r12)/r12)        ....  0.300000
 RI-approximation to the Coulomb term is turned on
   Number of AuxJ basis functions       .... 438
   RIJ-COSX (HFX calculated with COS-X)).... on


General Settings:
 Integral files         IntName         .... cpcm_opt
 Hartree-Fock type      HFTyp           .... RHF
 Total Charge           Charge          ....    1
 Multiplicity           Mult            ....    1
 Number of Electrons    NEL             ....   64
 Basis Dimension        Dim             ....  136
 Nuclear Repulsion      ENuc            ....    357.3134826524 Eh

Convergence Acceleration:
 DIIS                   CNVDIIS         .... on
   Start iteration      DIISMaxIt       ....    12
   Startup error        DIISStart       ....  0.200000
   # of expansion vecs  DIISMaxEq       ....     5
   Bias factor          DIISBfac        ....   1.050
   Max. coefficient     DIISMaxC        ....  10.000
 Trust-Rad. Augm. Hess. CNVTRAH         .... auto
   Auto Start mean grad. ratio tolernc. ....  1.125000
   Auto Start start iteration           ....    20
   Auto Start num. interpolation iter.  ....    10
   Max. Number of Micro iterations      ....    16
   Max. Number of Macro iterations      .... Maxiter - #DIIS iter
   Number of Davidson start vectors     ....     2
   Converg. threshold I  (grad. norm)   ....   1.000e-05
   Converg. threshold II (energy diff.) ....   1.000e-08
   Grad. Scal. Fac. for Micro threshold ....   0.100
   Minimum threshold for Micro iter.    ....   0.010
   NR start threshold (gradient norm)   ....   0.001
   Initial trust radius                 ....   0.400
   Minimum AH scaling param. (alpha)    ....   1.000
   Maximum AH scaling param. (alpha)    .... 1000.000
   Orbital update algorithm             .... Taylor
   White noise on init. David. guess    .... on
   Maximum white noise                  ....   0.010
   Quad. conv. algorithm                .... NR
 SOSCF                  CNVSOSCF        .... on
   Start iteration      SOSCFMaxIt      ....   150
   Startup grad/error   SOSCFStart      ....  0.003300
 Level Shifting         CNVShift        .... on
   Level shift para.    LevelShift      ....    0.2500
   Turn off err/grad.   ShiftErr        ....    0.0010
 Zerner damping         CNVZerner       .... off
 Static damping         CNVDamp         .... on
   Fraction old density DampFac         ....    0.7000
   Max. Damping (<1)    DampMax         ....    0.9800
   Min. Damping (>=0)   DampMin         ....    0.0000
   Turn off err/grad.   DampErr         ....    0.1000
 Fernandez-Rico         CNVRico         .... off

SCF Procedure:
 Maximum # iterations   MaxIter         ....   125
 SCF integral mode      SCFMode         .... Direct
   Integral package                     .... SHARK and LIBINT hybrid scheme
 Reset frequency        DirectResetFreq ....    20
 Integral Threshold     Thresh          ....  2.500e-11 Eh
 Primitive CutOff       TCut            ....  2.500e-12 Eh

Convergence Tolerance:
 Convergence Check Mode ConvCheckMode   .... Total+1el-Energy
 Convergence forced     ConvForced      .... 0
 Energy Change          TolE            ....  1.000e-08 Eh
 1-El. energy change                    ....  1.000e-05 Eh
 Orbital Gradient       TolG            ....  1.000e-05
 Orbital Rotation angle TolX            ....  1.000e-05
 DIIS Error             TolErr          ....  5.000e-07


Diagonalization of the overlap matrix:
Smallest eigenvalue                        ... 3.858e-04
Time for diagonalization                   ...    0.004 sec
Threshold for overlap eigenvalues          ... 1.000e-08
Number of eigenvalues below threshold      ... 0
Time for construction of square roots      ...    0.002 sec
Total time needed                          ...    0.005 sec

Time for model grid setup =    0.131 sec

------------------------------
INITIAL GUESS: MODEL POTENTIAL
------------------------------
Loading Hartree-Fock densities                     ... done
Calculating cut-offs                               ... done
Initializing the effective Hamiltonian             ... done
Setting up the integral package (SHARK)            ... done
Starting the Coulomb interaction                   ... done (   0.1 sec)
Reading the grid                                   ... done
Mapping shells                                     ... done
Starting the XC term evaluation                    ... done (   0.2 sec)
  promolecular density results
     # of electrons  =     64.997731062
     EX              =    -67.765463355
     EC              =     -2.276002109
     EX+EC           =    -70.041465464
Transforming the Hamiltonian                       ... done (   0.0 sec)
Diagonalizing the Hamiltonian                      ... done (   0.0 sec)
Back transforming the eigenvectors                 ... done (   0.0 sec)
Now organizing SCF variables                       ... done
                      ------------------
                      INITIAL GUESS DONE (   0.4 sec)
                      ------------------
-------------------
DFT GRID GENERATION
-------------------

General Integration Accuracy     IntAcc      ... 4.388
Radial Grid Type                 RadialGrid  ... OptM3 with GC (2021)
Angular Grid (max. ang.)         AngularGrid ... 4 (Lebedev-302)
Angular grid pruning method      GridPruning ... 4 (adaptive)
Weight generation scheme         WeightScheme... Becke
Basis function cutoff            BFCut       ... 1.0000e-11
Integration weight cutoff        WCut        ... 1.0000e-14
Angular grids for H and He will be reduced by one unit
Partially contracted basis set               ... off
Rotationally invariant grid construction     ... off

Total number of grid points                  ...    62707
Total number of batches                      ...      985
Average number of points per batch           ...       63
Average number of grid points per atom       ...     5226
Time for grid setup =    0.829 sec

--------------------
COSX GRID GENERATION
--------------------

GRIDX 1
-------
General Integration Accuracy     IntAcc      ... 3.816
Radial Grid Type                 RadialGrid  ... OptM3 with GC (2021)
Angular Grid (max. ang.)         AngularGrid ... 1 (Lebedev-50)
Angular grid pruning method      GridPruning ... 4 (adaptive)
Weight generation scheme         WeightScheme... Becke
Basis function cutoff            BFCut       ... 1.0000e-11
Integration weight cutoff        WCut        ... 1.0000e-14
Angular grids for H and He will be reduced by one unit
Partially contracted basis set               ... on
Rotationally invariant grid construction     ... off

Total number of grid points                  ...     7918
Total number of batches                      ...      130
Average number of points per batch           ...       60
Average number of grid points per atom       ...      660
UseSFitting                                  ... on

GRIDX 2
-------
General Integration Accuracy     IntAcc      ... 4.020
Radial Grid Type                 RadialGrid  ... OptM3 with GC (2021)
Angular Grid (max. ang.)         AngularGrid ... 2 (Lebedev-110)
Angular grid pruning method      GridPruning ... 4 (adaptive)
Weight generation scheme         WeightScheme... Becke
Basis function cutoff            BFCut       ... 1.0000e-11
Integration weight cutoff        WCut        ... 1.0000e-14
Angular grids for H and He will be reduced by one unit
Partially contracted basis set               ... on
Rotationally invariant grid construction     ... off

Total number of grid points                  ...    17925
Total number of batches                      ...      287
Average number of points per batch           ...       62
Average number of grid points per atom       ...     1494
UseSFitting                                  ... on

GRIDX 3
-------
General Integration Accuracy     IntAcc      ... 4.338
Radial Grid Type                 RadialGrid  ... OptM3 with GC (2021)
Angular Grid (max. ang.)         AngularGrid ... 3 (Lebedev-194)
Angular grid pruning method      GridPruning ... 4 (adaptive)
Weight generation scheme         WeightScheme... Becke
Basis function cutoff            BFCut       ... 1.0000e-11
Integration weight cutoff        WCut        ... 1.0000e-14
Angular grids for H and He will be reduced by one unit
Partially contracted basis set               ... on
Rotationally invariant grid construction     ... off

Total number of grid points                  ...    40233
Total number of batches                      ...      635
Average number of points per batch           ...       63
Average number of grid points per atom       ...     3353
UseSFitting                                  ... on

Time for X-Grid setup             =    0.638 sec


--------------------
CPCM SOLVATION MODEL
--------------------
CPCM parameters:
  Epsilon                                         ...      80.4000
  Refrac                                          ...       1.3300
  Rsolv                                           ...       1.3000
  Surface type                                    ... GAUSSIAN VDW
  Epsilon function type                           ...         CPCM
Radii:
 Radius for C  used is    3.8550 Bohr (=   2.0400 Ang.)
 Radius for O  used is    3.4469 Bohr (=   1.8240 Ang.)
 Radius for H  used is    2.4944 Bohr (=   1.3200 Ang.)
 Radius for Cl used is    3.9684 Bohr (=   2.1000 Ang.)
Calculating surface                               ...        done! (  0.0s)
GEPOL surface points                              ...          792
GEPOL Volume                                      ...     985.7746
GEPOL Surface-area                                ...     588.5753
Calculating surface distance matrix               ...        done! (  0.0s)
Performing Cholesky decomposition & store         ...        done! (  0.0s)
Overall time for CPCM initialization              ...                 0.0s
--------------
SCF ITERATIONS
--------------
ITER       Energy         Delta-E        Max-DP      RMS-DP      [F,P]     Damp
               ***  Starting incremental Fock matrix formation  ***
  0   -764.5070029874   0.000000000000 0.09467873  0.00370313  0.2227176 0.7000
  1   -764.5777244483  -0.070721460891 0.06600406  0.00264055  0.1306297 0.7000
                               ***Turning on DIIS***
  2   -764.6156645627  -0.037940114428 0.11229510  0.00524498  0.0656805 0.0000
  3   -764.6803084338  -0.064643871132 0.05340214  0.00161351  0.0501604 0.0000
  4   -764.6881218416  -0.007813407821 0.00848696  0.00039075  0.0064229 0.0000
                      *** Initiating the SOSCF procedure ***
                           *** Shutting down DIIS ***
                      *** Re-Reading the Fockian *** 
                      *** Removing any level shift *** 
ITER      Energy       Delta-E        Grad      Rot      Max-DP    RMS-DP
  5   -764.68846821  -0.0003463695  0.001826  0.001826  0.005846  0.000232
               *** Restarting incremental Fock matrix formation ***
  6   -764.68856647  -0.0000982596  0.001399  0.004774  0.007117  0.000248
  7   -764.68863054  -0.0000640674  0.000664  0.004736  0.007089  0.000247
  8   -764.68864644  -0.0000159025  0.000644  0.001278  0.001523  0.000061
  9   -764.68865300  -0.0000065629  0.000092  0.000346  0.000837  0.000028
 10   -764.68865333  -0.0000003232  0.000054  0.000201  0.000155  0.000006
 11   -764.68865345  -0.0000001255  0.000026  0.000167  0.000102  0.000004
 12   -764.68865347  -0.0000000183  0.000017  0.000026  0.000051  0.000002
 13   -764.68865348  -0.0000000101  0.000005  0.000017  0.000032  0.000001
                  ***Gradient check signals convergence***
              ***Rediagonalizing the Fockian in SOSCF/NRSCF***

               *****************************************************
               *                     SUCCESS                       *
               *           SCF CONVERGED AFTER  14 CYCLES          *
               *****************************************************

Old exchange energy                            =    -19.338179456 Eh
New exchange energy                            =    -19.338206497 Eh
Exchange energy change after final integration =     -0.000027041 Eh
Total energy after final integration           =   -764.688680522 Eh
Final COS-X integration done in                =    12.086 sec

----------------
TOTAL SCF ENERGY
----------------

Total Energy       :         -764.68868052 Eh          -20808.23687 eV

Components:
Nuclear Repulsion  :          357.31348265 Eh            9722.99417 eV
Electronic Energy  :        -1122.00216317 Eh          -30531.23104 eV
One Electron Energy:        -1742.39736719 Eh          -47413.04279 eV
Two Electron Energy:          620.39520402 Eh           16881.81176 eV
Max COSX asymmetry :            0.00000097 Eh               0.00003 eV
CPCM Dielectric    :           -0.09845785 Eh              -2.67917 eV

Virial components:
Potential Energy   :        -1531.13954309 Eh          -41664.42515 eV
Kinetic Energy     :          766.45086257 Eh           20856.18828 eV
Virial Ratio       :            1.99770085


DFT components:
N(Alpha)           :       31.999999121756 electrons
N(Beta)            :       31.999999121756 electrons
N(Total)           :       63.999998243512 electrons
E(XC)              :      -51.692510962792 Eh       
DFET-embed. en.    :        0.000000000000 Eh       
CPCM Solvation Model Properties:
Surface-charge          :           -1.00681702
Charge-correction       :            0.00096966 Eh               0.02639 eV
Free-energy (cav+disp)  :  This term is not implemented in the current solvation scheme

---------------
SCF CONVERGENCE
---------------

  Last Energy change         ...   -6.0470e-10  Tolerance :   1.0000e-08
  Last MAX-Density change    ...    3.1086e-15  Tolerance :   1.0000e-07
  Last RMS-Density change    ...    6.8328e-17  Tolerance :   5.0000e-09
  Last Orbital Gradient      ...    1.6555e-06  Tolerance :   1.0000e-05
  Last Orbital Rotation      ...    9.9544e-06  Tolerance :   1.0000e-05

             **** THE GBW FILE WAS UPDATED (cpcm_opt.gbw) ****
             **** DENSITY cpcm_opt.scfp WAS UPDATED ****
             **** ENERGY FILE WAS UPDATED (cpcm_opt.en.tmp) ****
             **** THE GBW FILE WAS UPDATED (cpcm_opt.gbw) ****
             **** DENSITY cpcm_opt.scfp WAS UPDATED ****
----------------
ORBITAL ENERGIES
----------------

  NO   OCC          E(Eh)            E(eV) 
   0   2.0000    -101.440689     -2760.3415 
   1   2.0000     -19.359889      -526.8094 
   2   2.0000     -10.479176      -285.1529 
   3   2.0000     -10.382033      -282.5095 
   4   2.0000     -10.356545      -281.8159 
   5   2.0000     -10.345032      -281.5026 
   6   2.0000     -10.326929      -281.0100 
   7   2.0000     -10.322747      -280.8962 
   8   2.0000      -9.570969      -260.4393 
   9   2.0000      -7.340484      -199.7447 
  10   2.0000      -7.319658      -199.1780 
  11   2.0000      -7.318684      -199.1515 
  12   2.0000      -1.314415       -35.7670 
  13   2.0000      -1.268577       -34.5197 
  14   2.0000      -0.994980       -27.0748 
  15   2.0000      -0.952370       -25.9153 
  16   2.0000      -0.906059       -24.6551 
  17   2.0000      -0.831199       -22.6181 
  18   2.0000      -0.808506       -22.0006 
  19   2.0000      -0.756456       -20.5842 
  20   2.0000      -0.752813       -20.4851 
  21   2.0000      -0.749181       -20.3862 
  22   2.0000      -0.707089       -19.2409 
  23   2.0000      -0.623850       -16.9758 
  24   2.0000      -0.614557       -16.7229 
  25   2.0000      -0.594970       -16.1900 
  26   2.0000      -0.516020       -14.0416 
  27   2.0000      -0.513791       -13.9810 
  28   2.0000      -0.416114       -11.3230 
  29   2.0000      -0.411453       -11.1962 
  30   2.0000      -0.355018        -9.6605 
  31   2.0000      -0.329774        -8.9736 
  32   0.0000      -0.094927        -2.5831 
  33   0.0000       0.012040         0.3276 
  34   0.0000       0.069199         1.8830 
  35   0.0000       0.145448         3.9579 
  36   0.0000       0.164969         4.4890 
  37   0.0000       0.171802         4.6750 
  38   0.0000       0.203073         5.5259 
  39   0.0000       0.215695         5.8694 
  40   0.0000       0.222260         6.0480 
  41   0.0000       0.249606         6.7921 
  42   0.0000       0.259698         7.0667 
  43   0.0000       0.276005         7.5105 
  44   0.0000       0.297490         8.0951 
  45   0.0000       0.322730         8.7819 
  46   0.0000       0.334737         9.1087 
  47   0.0000       0.366569         9.9749 
  48   0.0000       0.405125        11.0240 
  49   0.0000       0.472777        12.8649 
  50   0.0000       0.501991        13.6599 
  51   0.0000       0.511238        13.9115 
  52   0.0000       0.543379        14.7861 
  53   0.0000       0.555869        15.1260 
  54   0.0000       0.572609        15.5815 
  55   0.0000       0.590455        16.0671 
  56   0.0000       0.607268        16.5246 
  57   0.0000       0.623862        16.9762 
  58   0.0000       0.630060        17.1448 
  59   0.0000       0.669574        18.2200 
  60   0.0000       0.682199        18.5636 
  61   0.0000       0.706018        19.2117 
  62   0.0000       0.734724        19.9929 
  63   0.0000       0.753133        20.4938 
  64   0.0000       0.778232        21.1768 
  65   0.0000       0.821844        22.3635 
  66   0.0000       0.836140        22.7525 
  67   0.0000       0.836769        22.7696 
  68   0.0000       0.863973        23.5099 
  69   0.0000       0.895379        24.3645 
  70   0.0000       0.914139        24.8750 
  71   0.0000       0.939889        25.5757 
  72   0.0000       0.946697        25.7609 
  73   0.0000       0.977686        26.6042 
  74   0.0000       0.993881        27.0449 
  75   0.0000       1.002500        27.2794 
  76   0.0000       1.021665        27.8009 
  77   0.0000       1.043634        28.3987 
  78   0.0000       1.065669        28.9983 
  79   0.0000       1.120857        30.5001 
  80   0.0000       1.149986        31.2927 
  81   0.0000       1.217408        33.1273 
  82   0.0000       1.276883        34.7458 
  83   0.0000       1.293470        35.1971 
  84   0.0000       1.310479        35.6599 
  85   0.0000       1.341331        36.4995 
  86   0.0000       1.368369        37.2352 
  87   0.0000       1.377424        37.4816 
  88   0.0000       1.404933        38.2302 
  89   0.0000       1.422634        38.7118 
  90   0.0000       1.495594        40.6972 
  91   0.0000       1.512833        41.1663 
  92   0.0000       1.524702        41.4893 
  93   0.0000       1.551438        42.2168 
  94   0.0000       1.590088        43.2685 
  95   0.0000       1.613098        43.8946 
  96   0.0000       1.658705        45.1357 
  97   0.0000       1.681936        45.7678 
  98   0.0000       1.715513        46.6815 
  99   0.0000       1.761904        47.9438 
 100   0.0000       1.785414        48.5836 
 101   0.0000       1.854461        50.4624 
 102   0.0000       1.865926        50.7744 
 103   0.0000       1.887496        51.3614 
 104   0.0000       1.910208        51.9794 
 105   0.0000       1.957507        53.2665 
 106   0.0000       1.994132        54.2631 
 107   0.0000       2.010405        54.7059 
 108   0.0000       2.044595        55.6362 
 109   0.0000       2.066613        56.2354 
 110   0.0000       2.122665        57.7606 
 111   0.0000       2.152053        58.5603 
 112   0.0000       2.187718        59.5308 
 113   0.0000       2.276556        61.9482 
 114   0.0000       2.294350        62.4324 
 115   0.0000       2.332014        63.4573 
 116   0.0000       2.405343        65.4527 
 117   0.0000       2.462782        67.0157 
 118   0.0000       2.491129        67.7871 
 119   0.0000       2.630376        71.5762 
 120   0.0000       2.733213        74.3745 
 121   0.0000       2.791989        75.9739 
 122   0.0000       2.849766        77.5461 
 123   0.0000       2.938036        79.9480 
 124   0.0000       3.012793        81.9823 
 125   0.0000       3.047476        82.9260 
 126   0.0000       3.068389        83.4951 
 127   0.0000       3.116881        84.8146 
 128   0.0000       3.184013        86.6414 
 129   0.0000       3.278397        89.2097 
 130   0.0000       3.329493        90.6001 
 131   0.0000       3.388466        92.2048 
 132   0.0000       3.582959        97.4973 
 133   0.0000       3.782256       102.9204 
 134   0.0000       4.019556       109.3777 
 135   0.0000       4.325796       117.7109 

                    ********************************
                    * MULLIKEN POPULATION ANALYSIS *
                    ********************************

-----------------------
MULLIKEN ATOMIC CHARGES
-----------------------
   0 C :    0.106402
   1 C :    0.002005
   2 C :   -0.195526
   3 C :    0.160292
   4 C :   -0.082634
   5 C :    0.638448
   6 O :   -0.019286
   7 H :    0.059560
   8 H :    0.058897
   9 Cl:    0.147958
  10 H :    0.259899
  11 H :   -0.136013
Sum of atomic charges:    1.0000000

--------------------------------
MULLIKEN REDUCED ORBITAL CHARGES
--------------------------------
  0 C s       :     2.678916  s :     2.678916
      pz      :     1.063361  p :     3.079283
      px      :     1.126423
      py      :     0.889499
      dz2     :     0.018739  d :     0.135400
      dxz     :     0.034351
      dyz     :     0.013364
      dx2y2   :     0.040345
      dxy     :     0.028600
  1 C s       :     3.254503  s :     3.254503
      pz      :     0.962851  p :     2.704471
      px      :     0.862234
      py      :     0.879386
      dz2     :     0.002824  d :     0.039021
      dxz     :     0.000831
      dyz     :     0.013344
      dx2y2   :     0.008106
      dxy     :     0.013915
  2 C s       :     3.374158  s :     3.374158
      pz      :     1.010790  p :     2.790888
      px      :     1.057167
      py      :     0.722930
      dz2     :     0.002782  d :     0.030480
      dxz     :     0.000066
      dyz     :     0.011437
      dx2y2   :     0.008046
      dxy     :     0.008150
  3 C s       :     3.343243  s :     3.343243
      pz      :     0.970765  p :     2.454960
      px      :     0.800236
      py      :     0.683960
      dz2     :     0.002684  d :     0.041504
      dxz     :     0.000122
      dyz     :     0.014727
      dx2y2   :     0.007976
      dxy     :     0.015996
  4 C s       :     3.247919  s :     3.247919
      pz      :     1.017834  p :     2.809113
      px      :     1.076206
      py      :     0.715073
      dz2     :     0.002531  d :     0.025602
      dxz     :     0.000172
      dyz     :     0.010151
      dx2y2   :     0.007507
      dxy     :     0.005242
  5 C s       :     3.004359  s :     3.004359
      pz      :     0.793789  p :     2.277800
      px      :     0.619903
      py      :     0.864108
      dz2     :     0.019631  d :     0.079394
      dxz     :     0.010607
      dyz     :     0.025957
      dx2y2   :     0.010332
      dxy     :     0.012867
  6 O s       :     3.665898  s :     3.665898
      pz      :     1.499205  p :     4.335849
      px      :     1.562595
      py      :     1.274048
      dz2     :     0.005520  d :     0.017539
      dxz     :     0.004169
      dyz     :     0.004565
      dx2y2   :     0.002699
      dxy     :     0.000587
  7 H s       :     0.914998  s :     0.914998
      pz      :     0.009500  p :     0.025442
      px      :     0.011811
      py      :     0.004131
  8 H s       :     0.915723  s :     0.915723
      pz      :     0.015126  p :     0.025380
      px      :     0.005477
      py      :     0.004778
  9 Cls       :     5.803454  s :     5.803454
      pz      :     3.832040  p :    10.879344
      px      :     3.340442
      py      :     3.706862
      dz2     :     0.020699  d :     0.169245
      dxz     :     0.053562
      dyz     :     0.010688
      dx2y2   :     0.049652
      dxy     :     0.034644
 10 H s       :     0.668134  s :     0.668134
      pz      :     0.014712  p :     0.071967
      px      :     0.013661
      py      :     0.043593
 11 H s       :     1.098988  s :     1.098988
      pz      :     0.021387  p :     0.037026
      px      :     0.006391
      py      :     0.009248


                     *******************************
                     * LOEWDIN POPULATION ANALYSIS *
                     *******************************

----------------------
LOEWDIN ATOMIC CHARGES
----------------------
   0 C :   -0.463885
   1 C :    0.051768
   2 C :   -0.083487
   3 C :    0.137682
   4 C :   -0.045445
   5 C :    0.444859
   6 O :    0.182728
   7 H :    0.024351
   8 H :    0.023463
   9 Cl:    0.614535
  10 H :    0.150993
  11 H :   -0.037562

-------------------------------
LOEWDIN REDUCED ORBITAL CHARGES
-------------------------------
  0 C s       :     2.753578  s :     2.753578
      pz      :     1.071664  p :     3.326992
      px      :     1.235190
      py      :     1.020138
      dz2     :     0.054173  d :     0.383315
      dxz     :     0.108559
      dyz     :     0.026127
      dx2y2   :     0.125404
      dxy     :     0.069052
  1 C s       :     2.945335  s :     2.945335
      pz      :     0.937537  p :     2.913188
      px      :     0.857795
      py      :     1.117857
      dz2     :     0.008976  d :     0.089708
      dxz     :     0.001451
      dyz     :     0.026858
      dx2y2   :     0.023138
      dxy     :     0.029284
  2 C s       :     2.868753  s :     2.868753
      pz      :     1.001492  p :     3.137800
      px      :     1.044189
      py      :     1.092118
      dz2     :     0.008185  d :     0.076935
      dxz     :     0.000165
      dyz     :     0.025803
      dx2y2   :     0.024176
      dxy     :     0.018606
  3 C s       :     2.892669  s :     2.892669
      pz      :     0.957620  p :     2.876262
      px      :     0.810779
      py      :     1.107862
      dz2     :     0.007214  d :     0.093387
      dxz     :     0.000249
      dyz     :     0.030827
      dx2y2   :     0.021450
      dxy     :     0.033648
  4 C s       :     2.883851  s :     2.883851
      pz      :     0.984264  p :     3.098705
      px      :     1.040807
      py      :     1.073635
      dz2     :     0.007581  d :     0.062889
      dxz     :     0.000251
      dyz     :     0.021420
      dx2y2   :     0.021821
      dxy     :     0.011816
  5 C s       :     2.777365  s :     2.777365
      pz      :     0.977161  p :     2.603288
      px      :     0.634906
      py      :     0.991220
      dz2     :     0.046685  d :     0.174489
      dxz     :     0.023314
      dyz     :     0.058094
      dx2y2   :     0.022602
      dxy     :     0.023794
  6 O s       :     3.387855  s :     3.387855
      pz      :     1.543405  p :     4.397867
      px      :     1.524675
      py      :     1.329786
      dz2     :     0.008659  d :     0.031550
      dxz     :     0.005103
      dyz     :     0.009217
      dx2y2   :     0.007035
      dxy     :     0.001536
  7 H s       :     0.895879  s :     0.895879
      pz      :     0.027245  p :     0.079771
      px      :     0.039612
      py      :     0.012914
  8 H s       :     0.897065  s :     0.897065
      pz      :     0.043317  p :     0.079471
      px      :     0.021591
      py      :     0.014564
  9 Cls       :     5.304589  s :     5.304589
      pz      :     3.717512  p :    10.795292
      px      :     3.467147
      py      :     3.610633
      dz2     :     0.035524  d :     0.285585
      dxz     :     0.088409
      dyz     :     0.017304
      dx2y2   :     0.081648
      dxy     :     0.062699
 10 H s       :     0.666733  s :     0.666733
      pz      :     0.041450  p :     0.182274
      px      :     0.039831
      py      :     0.100993
 11 H s       :     0.907064  s :     0.907064
      pz      :     0.062127  p :     0.130498
      px      :     0.025890
      py      :     0.042480


                      *****************************
                      * MAYER POPULATION ANALYSIS *
                      *****************************

  NA   - Mulliken gross atomic population
  ZA   - Total nuclear charge
  QA   - Mulliken gross atomic charge
  VA   - Mayer's total valence
  BVA  - Mayer's bonded valence
  FA   - Mayer's free valence

  ATOM       NA         ZA         QA         VA         BVA        FA
  0 C      5.8936     6.0000     0.1064     3.7856     3.7856     0.0000
  1 C      5.9980     6.0000     0.0020     3.7729     3.7729     0.0000
  2 C      6.1955     6.0000    -0.1955     3.8611     3.8611     0.0000
  3 C      5.8397     6.0000     0.1603     3.5575     3.5575     0.0000
  4 C      6.0826     6.0000    -0.0826     3.6061     3.6061    -0.0000
  5 C      5.3616     6.0000     0.6384     3.8435     3.8435     0.0000
  6 O      8.0193     8.0000    -0.0193     2.5701     2.5701     0.0000
  7 H      0.9404     1.0000     0.0596     0.9921     0.9921    -0.0000
  8 H      0.9411     1.0000     0.0589     0.9909     0.9909    -0.0000
  9 Cl    16.8520    17.0000     0.1480     1.7310     1.7310     0.0000
 10 H      0.7401     1.0000     0.2599     0.9700     0.9700     0.0000
 11 H      1.1360     1.0000    -0.1360     1.0058     1.0058    -0.0000

  Mayer bond orders larger than 0.100000
B(  0-C ,  1-C ) :   0.6459 B(  0-C ,  7-H ) :   0.8715 B(  0-C ,  8-H ) :   0.8677 
B(  0-C ,  9-Cl) :   1.3896 B(  1-C ,  2-C ) :   2.9211 B(  1-C ,  4-C ) :   0.1194 
B(  2-C ,  3-C ) :   0.9028 B(  3-C ,  4-C ) :   2.5204 B(  4-C ,  5-C ) :   1.0587 
B(  5-C ,  6-O ) :   1.5923 B(  5-C , 11-H ) :   1.0346 B(  6-O , 10-H ) :   0.9268 
B(  7-H ,  9-Cl) :   0.1113 B(  8-H ,  9-Cl) :   0.1111 

-------
TIMINGS
-------

Total SCF time: 0 days 0 hours 1 min 32 sec 

Total time                  ....      92.261 sec
Sum of individual times     ....      91.987 sec  ( 99.7%)

Fock matrix formation       ....      90.092 sec  ( 97.6%)
  Split-RI-J                ....       2.990 sec  (  3.3% of F)
  Chain of spheres X        ....      73.040 sec  ( 81.1% of F)
  XC integration            ....       9.313 sec  ( 10.3% of F)
    Basis function eval.    ....       3.352 sec  ( 36.0% of XC)
    Density eval.           ....       1.637 sec  ( 17.6% of XC)
    XC-Functional eval.     ....       2.091 sec  ( 22.5% of XC)
    XC-Potential eval.      ....       1.880 sec  ( 20.2% of XC)
Diagonalization             ....       0.021 sec  (  0.0%)
Density matrix formation    ....       0.004 sec  (  0.0%)
Population analysis         ....       0.006 sec  (  0.0%)
Initial guess               ....       0.239 sec  (  0.3%)
Orbital Transformation      ....       0.000 sec  (  0.0%)
Orbital Orthonormalization  ....       0.000 sec  (  0.0%)
DIIS solution               ....       0.005 sec  (  0.0%)
SOSCF solution              ....       0.021 sec  (  0.0%)
Grid generation             ....       1.598 sec  (  1.7%)

Maximum memory used throughout the entire SCF-calculation: 61.5 MB


-------------------------------------------------------------------------------
                          DFT DISPERSION CORRECTION                            
                                                                               
                                 DFTD4 V2.5                                    
-------------------------------------------------------------------------------
The WB97X functional is recognized
Active option DFTDOPT                   ...         5   

Starting D4
-------------------------   ----------------
Dispersion correction           -0.001235063
-------------------------   ----------------


-------------------------   --------------------
FINAL SINGLE POINT ENERGY      -764.689915584517
-------------------------   --------------------

------------------------------------------------------------------------------
                         ORCA SCF GRADIENT CALCULATION
------------------------------------------------------------------------------

 ... reading COSX grid (gridx3)
Gradient of the Kohn-Sham DFT energy:
Kohn-Sham wavefunction type      ... RKS
Hartree-Fock exchange scaling    ...    0.158
Number of operators              ...    1
Number of atoms                  ...   12
Basis set dimensions             ...  136
Integral neglect threshold       ... 2.5e-11
Integral primitive cutoff        ... 2.5e-12
SHARK Integral package           ... ON

Nuc. rep. gradient       (SHARK) ... done (  0.0 sec)
HCore & Overlap gradient (SHARK) ... done (  0.1 sec)
RI-J gradient            (SHARK) ... done (  0.8 sec)
COSX-gradient                    ... done ( 13.2 sec)
Exchange-correlation gradient    ... done
Dispersion correction            ... Starting D4


------------------- 
Dispersion Gradient 
------------------- 
   1  :    0.000004105    0.000018157   -0.000000123
   2  :    0.000002339    0.000016230    0.000000167
   3  :    0.000001933    0.000010497   -0.000000397
   4  :    0.000000941   -0.000015413   -0.000001704
   5  :   -0.000000688   -0.000023356   -0.000001030
   6  :   -0.000000468   -0.000020598   -0.000003439
   7  :   -0.000002291   -0.000018575    0.000002194
   8  :    0.000003845    0.000004699    0.000002991
   9  :    0.000002000    0.000005113   -0.000003979
  10  :   -0.000010676    0.000031137    0.000004487
  11  :   -0.000000464   -0.000002388    0.000000614
  12  :   -0.000000578   -0.000005504    0.000000219

  |G| =    0.000058529

done

------------------
CARTESIAN GRADIENT
------------------

   1   C   :   -1.862625934    0.861805130    0.547772033
   2   C   :   -0.071492871   -0.003170341    0.017826792
   3   C   :    0.014685322    0.078241681   -0.000669963
   4   C   :   -0.001642851   -0.052528595   -0.003479782
   5   C   :   -0.005484693    0.072945811    0.036287913
   6   C   :    0.155188867   -0.297818354   -0.550320585
   7   O   :   -0.014734017   -0.032626342    0.034170070
   8   H   :   -0.069271566    0.021657970    0.001974178
   9   H   :   -0.059503894    0.018885886    0.034680389
  10   Cl  :    2.047460031   -0.970002552   -0.602607028
  11   H   :    0.003164235    0.040902515    0.001947695
  12   H   :   -0.135866767    0.261446389    0.482306656

Difference to translation invariance:
           :   -0.0001241375   -0.0002608015   -0.0001116325

Difference to rotation invariance:
           :    0.0005417837   -0.0005831492   -0.0005938368

Norm of the cartesian gradient     ...    3.2831483102
RMS gradient                       ...    0.5471913850
MAX gradient                       ...    2.0474600306

-------
TIMINGS
-------

Total SCF gradient time            ...       17.597 sec

One electron gradient       ....       0.100 sec  (  0.6%)
RI-J Coulomb gradient       ....       0.801 sec  (  4.6%)
COSX gradient               ....      13.219 sec  ( 75.1%)
XC gradient                 ....       2.583 sec  ( 14.7%)
CPCM gradient               ....       0.290 sec  (  1.6%)
   A-Matrix (El+Nuc)        ....       0.030 sec  (  0.2%)
   Potential                ....       0.260 sec  (  1.5%)

Maximum memory used throughout the entire SCFGRAD-calculation: 49.0 MB
------------------------------------------------------------------------------
                         ORCA GEOMETRY RELAXATION STEP
------------------------------------------------------------------------------

Reading the OPT-File                    .... done
Getting information on internals        .... done
Copying old internal coords+grads       .... done
Making the new internal coordinates     .... (new redundants).... done
Validating the new internal coordinates .... (new redundants).... done
Calculating the B-matrix                .... done
Calculating the G,G- and P matrices     .... done
Transforming gradient to internals      .... done
Projecting the internal gradient        .... done
Number of atoms                         ....  12
Number of internal coordinates          ....  43
Current Energy                          ....  -764.689915585 Eh
Current gradient norm                   ....     3.283148310 Eh/bohr
Maximum allowed component of the step   ....  0.300
Current trust radius                    ....  0.300
Evaluating the initial hessian          ....  (Almloef) done
Projecting the Hessian                  .... done
Forming the augmented Hessian           .... done
Diagonalizing the augmented Hessian     .... done
Last element of RFO vector              ....  0.882132400
Lowest eigenvalues of augmented Hessian:
 -1.081681186  0.001500083  0.001656979  0.017624531  0.030995215
Length of the computed step             ....  0.533935175
Warning: the length of the step is outside the trust region - taking restricted step instead
The input lambda is                     ....    -1.081681
   iter:   1  x=   -2.205000  g=    0.173670 f(x)=     0.195087
   iter:   2  x=   -3.297829  g=    0.067526 f(x)=     0.073795
   iter:   3  x=   -3.852534  g=    0.035857 f(x)=     0.019890
   iter:   4  x=   -3.942960  g=    0.027435 f(x)=     0.002481
   iter:   5  x=   -3.944876  g=    0.026329 f(x)=     0.000050
   iter:   6  x=   -3.944877  g=    0.026306 f(x)=     0.000000
   iter:   7  x=   -3.944877  g=    0.026306 f(x)=     0.000000
   iter:   8  x=   -3.944877  g=    0.026306 f(x)=    -0.000000
The output lambda is                    ....    -3.944877 (8 iterations)
The final length of the internal step   ....  0.300000000
Converting the step to cartesian space:
 Initial RMS(Int)=    0.0457495711
Transforming coordinates:
 Iter   0:  RMS(Cart)=    0.0377734316 RMS(Int)=    0.0407268542
 Iter   1:  RMS(Cart)=    0.0057274537 RMS(Int)=    0.0056191538
 Iter   2:  RMS(Cart)=    0.0004689101 RMS(Int)=    0.0002508179
 Iter   3:  RMS(Cart)=    0.0000746143 RMS(Int)=    0.0000415255
 Iter   4:  RMS(Cart)=    0.0000403259 RMS(Int)=    0.0000167705
 Iter   5:  RMS(Cart)=    0.0000222129 RMS(Int)=    0.0000090547
 Iter   6:  RMS(Cart)=    0.0000120840 RMS(Int)=    0.0000049056
 Iter   7:  RMS(Cart)=    0.0000065479 RMS(Int)=    0.0000026544
 Iter   8:  RMS(Cart)=    0.0000035445 RMS(Int)=    0.0000014356
 Iter   9:  RMS(Cart)=    0.0000019180 RMS(Int)=    0.0000007763
 Iter  10:  RMS(Cart)=    0.0000010376 RMS(Int)=    0.0000004197
 Iter  11:  RMS(Cart)=    0.0000005612 RMS(Int)=    0.0000002269
 Iter  12:  RMS(Cart)=    0.0000003035 RMS(Int)=    0.0000001227
 Iter  13:  RMS(Cart)=    0.0000001641 RMS(Int)=    0.0000000663
 Iter  14:  RMS(Cart)=    0.0000000887 RMS(Int)=    0.0000000358
done
Storing new coordinates                 .... done

                                .--------------------.
          ----------------------|Geometry convergence|-------------------------
          Item                value                   Tolerance       Converged
          ---------------------------------------------------------------------
          RMS gradient        0.3225203511            0.0001000000      NO
          MAX gradient        1.7850453513            0.0003000000      NO
          RMS step            0.0457495711            0.0020000000      NO
          MAX step            0.2420866223            0.0040000000      NO
          ........................................................
          Max(Bonds)      0.1281      Max(Angles)    3.60
          Max(Dihed)        0.98      Max(Improp)    0.00
          ---------------------------------------------------------------------

The optimization has not yet converged - more geometry cycles are needed


    ---------------------------------------------------------------------------
                         Redundant Internal Coordinates
                            (Angstroem and degrees)

        Definition                    Value    dE/dq     Step     New-Value
    ----------------------------------------------------------------------------
     1. B(C   1,C   0)                1.4636  0.337002 -0.0219    1.4417   
     2. B(C   2,C   1)                1.1843 -0.071687  0.0072    1.1915   
     3. B(C   3,C   2)                1.3809  0.007479 -0.0009    1.3800   
     4. B(C   4,C   3)                1.1997 -0.045201  0.0046    1.2043   
     5. B(C   5,C   4)                1.4333  0.033783 -0.0040    1.4293   
     6. B(O   6,C   5)                1.2978  0.028338 -0.0032    1.2946   
     7. B(H   7,C   0)                1.0822 -0.040445  0.0050    1.0871   
     8. B(H   8,C   0)                1.0817 -0.040444  0.0050    1.0867   
     9. B(Cl  9,C   1)                2.0978 -0.567748  0.0452    2.1429   
    10. B(Cl  9,C   0)                1.0821 -1.785045  0.1281    1.2102   
    11. B(H  10,O   6)                0.9440 -0.040388  0.0048    0.9488   
    12. B(H  11,C   5)                0.7860 -0.565174  0.0593    0.8453   
    13. A(H   7,C   0,H   8)          108.79  0.022134   -0.26    108.53   
    14. A(C   1,C   0,H   7)          110.00 -0.054585    0.21    110.21   
    15. A(H   7,C   0,Cl  9)          108.50 -0.125421    1.16    109.66   
    16. A(C   1,C   0,H   8)          110.59 -0.056586    0.23    110.81   
    17. A(H   8,C   0,Cl  9)          108.84 -0.154364    1.35    110.19   
    18. A(C   1,C   0,Cl  9)          110.08  0.362536   -2.62    107.46   
    19. A(C   2,C   1,Cl  9)          151.01  0.195453   -1.56    149.45   
    20. A(C   0,C   1,Cl  9)           28.98 -0.477530    3.60     32.58   
    21. L(C   1,C   2,C   3,Cl  9, 1) 180.01  0.119518   -0.85    179.16   
    22. L(C   1,C   2,C   3,Cl  9, 2) 179.96 -0.013507    0.09    180.05   
    23. L(C   2,C   3,C   4,C   5, 1) 180.33 -0.066588    0.48    180.81   
    24. L(C   2,C   3,C   4,C   5, 2) 180.00 -0.001009    0.01    180.00   
    25. A(C   3,C   4,C   5)          168.98 -0.012361    0.16    169.14   
    26. A(C   4,C   5,O   6)          109.92 -0.037164    0.49    110.41   
    27. A(O   6,C   5,H  11)          120.99  0.014456   -0.19    120.80   
    28. A(C   4,C   5,H  11)          129.09  0.022708   -0.30    128.79   
    29. A(C   5,O   6,H  10)          108.94 -0.013528    0.18    109.12   
    30. A(C   0,Cl  9,C   1)           40.94  0.114994   -0.98     39.96   
    31. D(Cl  9,C   1,C   0,H   7)    119.51  0.037583   -0.08    119.43   
    32. D(Cl  9,C   1,C   0,H   8)   -120.30 -0.006324   -0.13   -120.43   
    33. D(C   5,C   4,C   0,H   7)   -117.11 -0.053853    0.58   -116.52   
    34. D(C   5,C   4,C   0,Cl  9)    123.45 -0.066800    0.48    123.93   
    35. D(C   5,C   4,C   0,H   8)      3.11 -0.010272   -0.10      3.01   
    36. D(C   5,C   4,C   1,Cl  9)    123.63  0.132019   -0.98    122.65   
    37. D(O   6,C   5,C   4,C   3)   -179.72  0.000396   -0.01   -179.73   
    38. D(H  11,C   5,C   4,C   3)      0.28  0.000382   -0.01      0.27   
    39. D(H  10,O   6,C   5,H  11)      0.02  0.000036   -0.00      0.02   
    40. D(H  10,O   6,C   5,C   4)   -179.98  0.000023   -0.00   -179.98   
    41. D(C   0,Cl  9,C   1,C   2)    179.88  0.058600   -0.43    179.45   
    42. D(C   1,Cl  9,C   0,H   8)    121.35  0.057620   -0.49    120.86   
    43. D(C   1,Cl  9,C   0,H   7)   -120.42 -0.073902    0.61   -119.81   
    ----------------------------------------------------------------------------

         *************************************************************
         *                GEOMETRY OPTIMIZATION CYCLE   2            *
         *************************************************************
---------------------------------
CARTESIAN COORDINATES (ANGSTROEM)
---------------------------------
  C      0.102859    1.463731    0.039211
  C     -0.047206    0.030325   -0.005507
  C     -0.129626   -1.157571   -0.047564
  C     -0.245091   -2.532075   -0.090221
  C     -0.351162   -3.731494   -0.111010
  C     -0.392344   -5.132402   -0.391519
  O     -0.795886   -5.789387    0.648491
  H      0.852848    1.739936    0.776148
  H      0.411251    1.850099   -0.928518
  Cl    -0.968034    1.931602    0.353553
  H     -0.816068   -6.715339    0.442587
  H     -0.195543   -5.534907   -1.108256

----------------------------
CARTESIAN COORDINATES (A.U.)
----------------------------
  NO LB      ZA    FRAG     MASS         X           Y           Z
   0 C     6.0000    0    12.011    0.194376    2.766051    0.074098
   1 C     6.0000    0    12.011   -0.089207    0.057306   -0.010406
   2 C     6.0000    0    12.011   -0.244957   -2.187491   -0.089882
   3 C     6.0000    0    12.011   -0.463154   -4.784928   -0.170492
   4 C     6.0000    0    12.011   -0.663600   -7.051501   -0.209779
   5 C     6.0000    0    12.011   -0.741423   -9.698834   -0.739864
   6 O     8.0000    0    15.999   -1.504006  -10.940356    1.225471
   7 H     1.0000    0     1.008    1.611650    3.288002    1.466707
   8 H     1.0000    0     1.008    0.777152    3.496181   -1.754644
   9 Cl   17.0000    0    35.453   -1.829320    3.650199    0.668118
  10 H     1.0000    0     1.008   -1.542146  -12.690151    0.836369
  11 H     1.0000    0     1.008   -0.369523  -10.459458   -2.094300

--------------------------------
INTERNAL COORDINATES (ANGSTROEM)
--------------------------------
 C      0   0   0     0.000000000000     0.00000000     0.00000000
 C      1   0   0     1.441933661446     0.00000000     0.00000000
 C      2   1   0     1.191493904069   177.97849078     0.00000000
 C      3   2   1     1.380004812631   179.13042937   170.14987179
 C      4   3   2     1.204279573596   179.17823811   304.67885279
 C      5   4   3     1.429309472494   169.14269134   179.96969568
 O      6   5   4     1.294641857692   110.40823165   180.27110237
 H      1   2   3     1.087128623250   110.20533339   307.65044227
 H      1   2   3     1.086685237095   110.81562092    67.77781710
 Cl     1   2   3     1.210176516056   107.47492689   188.21663389
 H      7   6   5     0.948783454224   109.12000167   180.01903914
 H      6   5   4     0.845252799178   128.78789600     0.27131028

---------------------------
INTERNAL COORDINATES (A.U.)
---------------------------
 C      0   0   0     0.000000000000     0.00000000     0.00000000
 C      1   0   0     2.724859723416     0.00000000     0.00000000
 C      2   1   0     2.251597168928   177.97849078     0.00000000
 C      3   2   1     2.607831159365   179.13042937   170.14987179
 C      4   3   2     2.275758582772   179.17823811   304.67885279
 C      5   4   3     2.701003463634   169.14269134   179.96969568
 O      6   5   4     2.446518552550   110.40823165   180.27110237
 H      1   2   3     2.054375370289   110.20533339   307.65044227
 H      1   2   3     2.053537491886   110.81562092    67.77781710
 Cl     1   2   3     2.286902189050   107.47492689   188.21663389
 H      7   6   5     1.792940888880   109.12000167   180.01903914
 H      6   5   4     1.597296304377   128.78789600     0.27131028

------------------------------------------------------------------------------
                   ___                                                        
                  /   \      - P O W E R E D   B Y -                         
                 /     \                                                     
                 |  |  |   _    _      __       _____    __    __             
                 |  |  |  | |  | |    /  \     |  _  \  |  |  /  |          
                  \  \/   | |  | |   /    \    | | | |  |  | /  /          
                 / \  \   | |__| |  /  /\  \   | |_| |  |  |/  /          
                |  |  |   |  __  | /  /__\  \  |    /   |      \           
                |  |  |   | |  | | |   __   |  |    \   |  |\   \          
                \     /   | |  | | |  |  |  |  | |\  \  |  | \   \       
                 \___/    |_|  |_| |__|  |__|  |_| \__\ |__|  \__/        
                                                                              
                      - O R C A' S   B I G   F R I E N D -                    
                                      &                                       
                       - I N T E G R A L  F E E D E R -                       
                                                                              
 v1 FN, 2020, v2 2021                                                         
------------------------------------------------------------------------------


Reading SHARK input file cpcm_opt.SHARKINP.tmp ... ok
----------------------
SHARK INTEGRAL PACKAGE
----------------------

Number of atoms                             ...     12
Number of basis functions                   ...    136
Number of shells                            ...     62
Maximum angular momentum                    ...      2
Integral batch strategy                     ... SHARK/LIBINT Hybrid
RI-J (if used) integral strategy            ... SPLIT-RIJ (Revised 2003 algorithm where possible)
Printlevel                                  ...      1
Contraction scheme used                     ... SEGMENTED contraction
Coulomb Range Separation                    ... NOT USED
Exchange Range Separation                   ... Long Range
   Mu parameter                             ...  0.300000
   Scaling (regular/separated)              ...  0.157706  0.842294
Finite Nucleus Model                        ... NOT USED
Auxiliary Coulomb fitting basis             ... AVAILABLE
   # of basis functions in Aux-J            ...    438
   # of shells in Aux-J                     ...    142
   Maximum angular momentum in Aux-J        ...      4
Auxiliary J/K fitting basis                 ... NOT available
Auxiliary Correlation fitting basis         ... NOT available
Auxiliary 'external' fitting basis          ... NOT available
Integral threshold                          ...     2.500000e-11
Primitive cut-off                           ...     2.500000e-12
Primitive pair pre-selection threshold      ...     2.500000e-12

Calculating pre-screening integrals         ... done (  0.0 sec) Dimension = 62
Organizing shell pair data                  ... done (  0.0 sec)
Shell pair information
Total number of shell pairs                 ...      1953
Shell pairs after pre-screening             ...      1579
Total number of primitive shell pairs       ...      7629
Primitive shell pairs kept                  ...      4445
          la=0 lb=0:    454 shell pairs
          la=1 lb=0:    565 shell pairs
          la=1 lb=1:    193 shell pairs
          la=2 lb=0:    205 shell pairs
          la=2 lb=1:    135 shell pairs
          la=2 lb=2:     27 shell pairs

Calculating one electron integrals          ... done (  0.0 sec)
Calculating RI/J V-Matrix + Cholesky decomp.... done (  0.0 sec)
Calculating Nuclear repulsion               ... done (  0.0 sec) ENN=    350.172181890702 Eh

SHARK setup successfully completed in   0.2 seconds

Maximum memory used throughout the entire GTOINT-calculation: 15.7 MB

Diagonalization of the overlap matrix:
Smallest eigenvalue                        ... 3.861e-04
Time for diagonalization                   ...    0.004 sec
Threshold for overlap eigenvalues          ... 1.000e-08
Number of eigenvalues below threshold      ... 0
Time for construction of square roots      ...    0.002 sec
Total time needed                          ...    0.005 sec

-------------------
DFT GRID GENERATION
-------------------

General Integration Accuracy     IntAcc      ... 4.388
Radial Grid Type                 RadialGrid  ... OptM3 with GC (2021)
Angular Grid (max. ang.)         AngularGrid ... 4 (Lebedev-302)
Angular grid pruning method      GridPruning ... 4 (adaptive)
Weight generation scheme         WeightScheme... Becke
Basis function cutoff            BFCut       ... 1.0000e-11
Integration weight cutoff        WCut        ... 1.0000e-14
Angular grids for H and He will be reduced by one unit
Partially contracted basis set               ... off
Rotationally invariant grid construction     ... off

Total number of grid points                  ...    62736
Total number of batches                      ...      988
Average number of points per batch           ...       63
Average number of grid points per atom       ...     5228
Time for grid setup =    0.684 sec

--------------------
COSX GRID GENERATION
--------------------

GRIDX 1
-------
General Integration Accuracy     IntAcc      ... 3.816
Radial Grid Type                 RadialGrid  ... OptM3 with GC (2021)
Angular Grid (max. ang.)         AngularGrid ... 1 (Lebedev-50)
Angular grid pruning method      GridPruning ... 4 (adaptive)
Weight generation scheme         WeightScheme... Becke
Basis function cutoff            BFCut       ... 1.0000e-11
Integration weight cutoff        WCut        ... 1.0000e-14
Angular grids for H and He will be reduced by one unit
Partially contracted basis set               ... on
Rotationally invariant grid construction     ... off

Total number of grid points                  ...     7918
Total number of batches                      ...      129
Average number of points per batch           ...       61
Average number of grid points per atom       ...      660
UseSFitting                                  ... on

GRIDX 2
-------
General Integration Accuracy     IntAcc      ... 4.020
Radial Grid Type                 RadialGrid  ... OptM3 with GC (2021)
Angular Grid (max. ang.)         AngularGrid ... 2 (Lebedev-110)
Angular grid pruning method      GridPruning ... 4 (adaptive)
[...]
   82       -762.757699169578     1.007592e-03                     0.891 (TRAH MAcro)   No
   82     dE    -2.041482e-08     1.368935e-03    -4.0869e-08      0.000 (TRAH MIcro)
   82     dE    -6.207155e-08     2.477388e-04    -1.2414e-07      0.000 (TRAH MIcro)
   82     dE    -6.661660e-08     8.759586e-05    -1.3323e-07      0.000 (TRAH MIcro)
   83       -762.757699221606     8.810217e-05                           (NR   MAcro)
   83     dE    -1.911671e-09     1.564788e-04                           (NR   MIcro)
   83     dE    -1.839854e-08     5.009125e-04                           (NR   MIcro)
   83     dE    -1.020543e-07     7.987319e-04                           (NR   MIcro)
   83     dE    -1.275999e-07     2.632605e-04                           (NR   MIcro)
   83     dE    -1.470675e-07     6.141985e-04                           (NR   MIcro)
   83     dE    -1.654711e-07     3.022703e-04                           (NR   MIcro)
   83     dE    -1.723840e-07     1.641312e-04                           (NR   MIcro)
   83     dE    -2.240705e-07     1.813679e-03                           (NR   MIcro)
   83     dE    -9.470156e-07     4.084423e-03                           (NR   MIcro)
   83     dE    -2.253072e-06     4.091162e-03                           (NR   MIcro)
   83     dE    -2.671955e-06     1.561838e-03                           (NR   MIcro)
   83     dE    -3.041288e-06     1.909815e-03                           (NR   MIcro)
   83     dE     5.306371e-06     3.120172e-02                           (NR   MIcro)
   83     dE     5.747173e-08     1.445320e-03                           (NR   MIcro)
   83     dE    -1.428149e-08     4.346711e-04                           (NR   MIcro)
   84       -762.757699336356     4.438313e-04                           (NR   MAcro)
   84     dE    -4.010933e-09     8.648288e-05                           (NR   MIcro)
   84     dE    -5.161107e-09     9.108169e-05                           (NR   MIcro)
   84     dE    -1.282289e-08     6.417360e-04                           (NR   MIcro)
   84     dE    -4.888253e-08     3.901209e-04                           (NR   MIcro)
   84     dE    -6.741225e-08     3.411742e-04                           (NR   MIcro)
   84     dE    -7.181701e-08     1.106240e-04                           (NR   MIcro)
   84     dE    -7.578145e-08     2.427317e-04                           (NR   MIcro)
   84     dE    -8.189146e-08     3.230622e-04                           (NR   MIcro)
   84     dE    -8.827849e-08     3.164735e-04                           (NR   MIcro)
   84     dE    -1.320029e-07     1.830772e-03                           (NR   MIcro)
   84     dE    -2.813952e-07     5.819989e-04                           (NR   MIcro)
   84     dE    -3.086180e-07     3.245425e-04                           (NR   MIcro)
   84     dE    -3.125372e-07     3.152496e-04                           (NR   MIcro)
   84     dE    -3.573003e-07     1.468183e-03                           (NR   MIcro)
   84     dE     2.174263e-07     3.304980e-03                           (NR   MIcro)
   85       -762.757698863326     3.306737e-03                     1.069 (TRAH MAcro)   No
   85     dE    -2.797086e-08     3.310030e-03    -5.8529e-08      0.000 (TRAH MIcro)
   85     dE    -4.205710e-07     5.405271e-04    -8.4114e-07      0.000 (TRAH MIcro)
   85     dE    -4.577895e-07     1.324141e-04    -9.1558e-07      0.001 (TRAH MIcro)
   86       -762.757699302597     1.333761e-04                           (NR   MAcro)
   86     dE    -1.543080e-09     7.325313e-05                           (NR   MIcro)
   86     dE    -3.608022e-09     1.169369e-04                           (NR   MIcro)
   86     dE    -1.945861e-08     5.128949e-04                           (NR   MIcro)
   86     dE    -7.004147e-08     4.408215e-04                           (NR   MIcro)
   86     dE    -1.064116e-07     4.092730e-04                           (NR   MIcro)
   86     dE    -1.445131e-07     4.792427e-04                           (NR   MIcro)
   86     dE    -1.762081e-07     2.700679e-04                           (NR   MIcro)
   86     dE    -1.827595e-07     1.889807e-04                           (NR   MIcro)
   86     dE    -2.031082e-07     5.561066e-04                           (NR   MIcro)
   86     dE    -5.361819e-07     2.625001e-03                           (NR   MIcro)
   86     dE    -2.669642e-06     3.060396e-03                           (NR   MIcro)
   86     dE    -4.285046e-06     2.331464e-03                           (NR   MIcro)
   86     dE    -7.331011e-06     1.212316e-02                           (NR   MIcro)
   86     dE     1.721285e-07     1.917343e-03                           (NR   MIcro)
   86     dE    -1.915600e-08     4.553330e-04                           (NR   MIcro)
   87       -762.757699368082     4.656277e-04                           (NR   MAcro)
   87     dE    -1.075786e-08     9.557396e-05                           (NR   MIcro)
   87     dE    -1.201484e-08     4.064708e-05                           (NR   MIcro)
   87     dE    -1.383471e-08     1.957113e-04                           (NR   MIcro)
   87     dE    -3.396377e-08     4.797692e-04                           (NR   MIcro)
   87     dE    -7.933478e-08     4.228026e-04                           (NR   MIcro)
   87     dE    -9.463320e-08     1.698486e-04                           (NR   MIcro)
   87     dE    -1.013018e-07     2.088951e-04                           (NR   MIcro)
   87     dE    -1.089155e-07     1.598281e-04                           (NR   MIcro)
   87     dE    -1.136131e-07     1.190723e-04                           (NR   MIcro)
   87     dE    -1.373170e-07     7.093884e-04                           (NR   MIcro)
   87     dE    -3.000127e-07     8.890351e-04                           (NR   MIcro)
   87     dE    -3.499329e-07     3.067409e-04                           (NR   MIcro)
   87     dE    -3.584853e-07     1.772463e-04                           (NR   MIcro)
   87     dE    -3.797489e-07     5.458453e-04                           (NR   MIcro)
   87     dE     9.773232e-07     8.338837e-03                           (NR   MIcro)
   88       -762.757691736211     8.448844e-03                     1.283 (TRAH MAcro)   No
   88     dE    -5.211784e-07     1.466782e-02    -1.0424e-06      0.000 (TRAH MIcro)
   88     dE    -4.112906e-06     2.936341e-03    -8.2258e-06      0.002 (TRAH MIcro)
   88     dE    -4.348105e-06     6.339335e-04    -8.6962e-06      0.002 (TRAH MIcro)
   89       -762.757696103769     6.371074e-04                           (NR   MAcro)
   89     dE    -1.842490e-08     2.361859e-04                           (NR   MIcro)
   89     dE    -4.581209e-08     6.981800e-04                           (NR   MIcro)
   89     dE    -2.996022e-07     2.949719e-03                           (NR   MIcro)
   89     dE    -1.047721e-06     2.278904e-03                           (NR   MIcro)
   89     dE    -1.889022e-06     3.636281e-03                           (NR   MIcro)
   89     dE    -2.883814e-06     5.381517e-03                           (NR   MIcro)
   89     dE    -3.405587e-06     6.867472e-04                           (NR   MIcro)
   89     dE    -3.471865e-06     6.569957e-04                           (NR   MIcro)
   89     dE    -3.881657e-06     4.618101e-03                           (NR   MIcro)
   89     dE    -6.411483e-06     7.416536e-03                           (NR   MIcro)
   89     dE    -8.462350e-06     2.651656e-03                           (NR   MIcro)
   89     dE    -8.756655e-06     1.080339e-03                           (NR   MIcro)
   89     dE    -9.159523e-06     2.377300e-03                           (NR   MIcro)
   89     dE     3.363732e-05     9.522055e-02                           (NR   MIcro)
   89     dE     4.766470e-06     4.074908e-03                           (NR   MIcro)
   90       -762.757690668702     5.685305e-03                     1.540 (TRAH MAcro)   No
   90     dE    -8.230625e-08     5.708543e-03    -1.6493e-07      0.000 (TRAH MIcro)
   90     dE    -7.265603e-07     3.000473e-04    -1.4531e-06      0.000 (TRAH MIcro)
   91       -762.757691404108     3.005600e-04                           (NR   MAcro)
   91     dE    -2.220098e-08     3.643058e-04                           (NR   MIcro)
   91     dE    -8.070324e-08     7.262273e-04                           (NR   MIcro)
   91     dE    -8.617072e-07     3.655110e-03                           (NR   MIcro)
   91     dE    -5.626886e-06     5.366228e-03                           (NR   MIcro)
   91     dE    -8.459630e-06     2.323169e-03                           (NR   MIcro)
   91     dE    -9.526452e-06     1.968247e-03                           (NR   MIcro)
   91     dE    -1.100833e-05     2.394040e-03                           (NR   MIcro)
   91     dE    -1.247383e-05     2.513570e-03                           (NR   MIcro)
   91     dE    -2.359757e-05     1.388558e-02                           (NR   MIcro)
   91     dE     4.866454e-05     1.832180e-02                           (NR   MIcro)
   91     dE     3.208779e-05     2.952969e-03                           (NR   MIcro)
   91     dE     3.162363e-05     9.895945e-04                           (NR   MIcro)
   91     dE     3.061948e-05     4.902519e-03                           (NR   MIcro)
   91     dE     2.171647e-05     1.578191e-02                           (NR   MIcro)
   91     dE     1.751505e-05     1.725712e-03                           (NR   MIcro)
   92       -762.757642587275     2.193760e-02                     1.848 (TRAH MAcro)   No
   92     dE    -1.688646e-05     1.793257e-02    -3.3773e-05      0.002 (TRAH MIcro)
   92     dE    -1.779569e-05     8.341744e-04    -3.5591e-05      0.002 (TRAH MIcro)
   93       -762.757660366953     8.336213e-04                           (NR   MAcro)
   93     dE    -2.993281e-08     7.935092e-04                           (NR   MIcro)
   93     dE    -5.520662e-08     5.188407e-04                           (NR   MIcro)
   93     dE    -2.476979e-07     5.768913e-03                           (NR   MIcro)
   93     dE    -7.313188e-07     7.836024e-04                           (NR   MIcro)
   93     dE    -8.860852e-07     2.235733e-03                           (NR   MIcro)
   93     dE    -1.040502e-06     1.508119e-03                           (NR   MIcro)
   93     dE    -1.088870e-06     2.900037e-04                           (NR   MIcro)
   93     dE    -1.114664e-06     8.164278e-04                           (NR   MIcro)
   93     dE    -1.472575e-06     3.705394e-03                           (NR   MIcro)
   93     dE    -2.456972e-06     2.255721e-03                           (NR   MIcro)
   93     dE    -2.821404e-06     1.208255e-03                           (NR   MIcro)
   93     dE    -2.859447e-06     5.557467e-04                           (NR   MIcro)
   93     dE    -2.980103e-06     1.889412e-03                           (NR   MIcro)
   93     dE    -7.409200e-06     1.208847e-02                           (NR   MIcro)
   93     dE     2.986317e-06     5.089393e-03                           (NR   MIcro)
   94       -762.757649195060     6.680447e-03                     2.217 (TRAH MAcro)   No
   94     dE    -1.316626e-07     7.320805e-03    -2.6339e-07      0.000 (TRAH MIcro)
   94     dE    -1.117068e-06     6.111158e-04    -2.2341e-06      0.001 (TRAH MIcro)
   95       -762.757650312623     6.122563e-04                           (NR   MAcro)
   95     dE    -5.273250e-08     4.963531e-04                           (NR   MIcro)
   95     dE    -1.881364e-07     9.673735e-04                           (NR   MIcro)
   95     dE    -1.076319e-06     3.454998e-03                           (NR   MIcro)
   95     dE    -2.252070e-06     1.891242e-03                           (NR   MIcro)
   95     dE    -2.481277e-06     1.022206e-03                           (NR   MIcro)
   95     dE    -2.601525e-06     6.210702e-04                           (NR   MIcro)
   95     dE    -2.693663e-06     7.810768e-04                           (NR   MIcro)
   95     dE    -2.742794e-06     1.003600e-03                           (NR   MIcro)
   95     dE    -3.053116e-06     2.037877e-03                           (NR   MIcro)
   95     dE    -3.762717e-06     2.132654e-03                           (NR   MIcro)
   95     dE    -3.893768e-06     4.352340e-04                           (NR   MIcro)
   95     dE    -3.906309e-06     1.874187e-04                           (NR   MIcro)
   95     dE    -3.909651e-06     4.151291e-04                           (NR   MIcro)
   95     dE    -3.935608e-06     6.192800e-04                           (NR   MIcro)
   95     dE    -3.972932e-06     6.388821e-04                           (NR   MIcro)
   96       -762.757656969169     8.807957e-04                           (NR   MAcro)
   96     dE    -3.292219e-08     3.962421e-04                           (NR   MIcro)
   96     dE    -1.009118e-07     8.382272e-04                           (NR   MIcro)
   96     dE    -5.077664e-07     2.277904e-03                           (NR   MIcro)
   96     dE    -1.048657e-06     1.385223e-03                           (NR   MIcro)
   96     dE    -1.109677e-06     4.757646e-04                           (NR   MIcro)
   96     dE    -1.122139e-06     5.555867e-04                           (NR   MIcro)
   96     dE    -1.170341e-06     1.088927e-03                           (NR   MIcro)
   96     dE    -1.343512e-06     1.589157e-03                           (NR   MIcro)
   96     dE    -1.435401e-06     7.405145e-04                           (NR   MIcro)
   96     dE    -1.508752e-06     8.481564e-04                           (NR   MIcro)
   96     dE    -1.552112e-06     5.700122e-04                           (NR   MIcro)
   96     dE    -1.556539e-06     7.384357e-05                           (NR   MIcro)
   96     dE    -1.557461e-06     9.514527e-05                           (NR   MIcro)
   96     dE    -1.564359e-06     5.559654e-04                           (NR   MIcro)
   96     dE    -1.578464e-06     1.937877e-04                           (NR   MIcro)
   97       -762.757659763695     2.998986e-04                           (NR   MAcro)
   97     dE    -1.566181e-08     2.861296e-04                           (NR   MIcro)
   97     dE    -6.092966e-08     6.732556e-04                           (NR   MIcro)
   97     dE    -4.036639e-07     1.691494e-03                           (NR   MIcro)
   97     dE    -7.190794e-07     5.705501e-04                           (NR   MIcro)
   97     dE    -7.400782e-07     1.600244e-04                           (NR   MIcro)
   97     dE    -7.513453e-07     3.674527e-04                           (NR   MIcro)
   97     dE    -7.938426e-07     6.170840e-04                           (NR   MIcro)
   97     dE    -1.070531e-06     1.789125e-03                           (NR   MIcro)
   97     dE    -1.145032e-06     2.658952e-04                           (NR   MIcro)
   97     dE    -1.148191e-06     8.840174e-05                           (NR   MIcro)
   97     dE    -1.149107e-06     1.231998e-04                           (NR   MIcro)
   97     dE    -1.154085e-06     2.343228e-04                           (NR   MIcro)
   97     dE    -1.166295e-06     3.301925e-04                           (NR   MIcro)
   97     dE    -1.171255e-06     2.119663e-04                           (NR   MIcro)
   97     dE    -1.174393e-06     1.196870e-04                           (NR   MIcro)
   98       -762.757661943192     2.164385e-04                           (NR   MAcro)
   98     dE    -9.852599e-09     2.278116e-04                           (NR   MIcro)
   98     dE    -4.563263e-08     5.625950e-04                           (NR   MIcro)
   98     dE    -2.320033e-07     9.273299e-04                           (NR   MIcro)
   98     dE    -4.163425e-07     6.607211e-04                           (NR   MIcro)
   98     dE    -5.391446e-07     8.534067e-04                           (NR   MIcro)
   98     dE    -6.171682e-07     4.201146e-04                           (NR   MIcro)
   98     dE    -6.304820e-07     2.112801e-04                           (NR   MIcro)
   98     dE    -6.508022e-07     4.082969e-04                           (NR   MIcro)
   98     dE    -8.506564e-07     1.908900e-03                           (NR   MIcro)
   98     dE    -1.112955e-06     6.498613e-04                           (NR   MIcro)
   98     dE    -1.133276e-06     1.560364e-04                           (NR   MIcro)
   98     dE    -1.134880e-06     1.126155e-04                           (NR   MIcro)
   98     dE    -1.137983e-06     1.958278e-04                           (NR   MIcro)
   98     dE    -1.163192e-06     7.683723e-04                           (NR   MIcro)
   98     dE    -1.182083e-06     1.825747e-04                           (NR   MIcro)
   99       -762.757664334020     2.581991e-04                           (NR   MAcro)
   99     dE    -9.338641e-09     1.843639e-04                           (NR   MIcro)
   99     dE    -2.355232e-08     3.581893e-04                           (NR   MIcro)
   99     dE    -1.488144e-07     1.196375e-03                           (NR   MIcro)
   99     dE    -6.411560e-07     1.819133e-03                           (NR   MIcro)
   99     dE    -9.942718e-07     5.263817e-04                           (NR   MIcro)
   99     dE    -1.034545e-06     4.813752e-04                           (NR   MIcro)
   99     dE    -1.133611e-06     7.161748e-04                           (NR   MIcro)
   99     dE    -1.429548e-06     1.258741e-03                           (NR   MIcro)
   99     dE    -1.920358e-06     2.548031e-03                           (NR   MIcro)
   99     dE    -4.756084e-06     6.044429e-03                           (NR   MIcro)
   99     dE    -8.746461e-06     2.742229e-03                           (NR   MIcro)
   99     dE    -9.239691e-06     8.151242e-04                           (NR   MIcro)
   99     dE    -9.593196e-06     2.274885e-03                           (NR   MIcro)
   99     dE    -1.446367e-05     1.162089e-02                           (NR   MIcro)
   99     dE     5.121012e-05     3.362387e-02                           (NR   MIcro)
  100       -762.750980096598     4.231981e-01                     2.661 (TRAH MAcro)   No
  100     dE    -6.212758e-03     4.403647e-01    -1.2415e-02      0.029 (TRAH MIcro)
  100     dE    -6.612684e-03     8.608452e-03    -1.3212e-02      0.032 (TRAH MIcro)
  101       -762.757588018735     8.615123e-03                     3.193 (TRAH MAcro)   No
  101     dE    -1.119428e-07     4.097408e-03    -2.2394e-07      0.000 (TRAH MIcro)
  101     dE    -2.890672e-06     2.039187e-03    -5.7813e-06      0.002 (TRAH MIcro)
  101     dE    -3.316715e-06     6.919789e-04    -6.6334e-06      0.003 (TRAH MIcro)

               *****************************************************
               *                      ERROR                        *
               *        SCF NOT CONVERGED AFTER 1355 CYCLES         *
               *****************************************************

  Last Energy change         ...    0.0000e+00  Tolerance :   1.0000e-08
  Last Orbital Gradient      ...    8.6151e-03  Tolerance :   1.0000e-05
  Last Orbital Rotation      ...    2.7939e-03

     --------------------------------------------------------------------
                                      ERROR
     This wavefunction IS NOT CONVERGED! 
     And it is 'too far' from meeting the convergence thresholds.
     Aborting ...
     Please restart calculation (with larger maxiter?)
     --------------------------------------------------------------------



ORCA finished by error termination in SCF
Calling Command: /opt/software/orca/5.0.4/orca_scf cpcm_opt.gbw b 
[file orca_tools/qcmsg.cpp, line 465]: 
  .... aborting the run

