
                                 *****************
                                 * O   R   C   A *
                                 *****************

                                            #,                                       
                                            ###                                      
                                            ####                                     
                                            #####                                    
                                            ######                                   
                                           ########,                                 
                                     ,,################,,,,,                         
                               ,,#################################,,                 
                          ,,##########################################,,             
                       ,#########################################, ''#####,          
                    ,#############################################,,   '####,        
                  ,##################################################,,,,####,       
                ,###########''''           ''''###############################       
              ,#####''   ,,,,##########,,,,          '''####'''          '####       
            ,##' ,,,,###########################,,,                        '##       
           ' ,,###''''                  '''############,,,                           
         ,,##''                                '''############,,,,        ,,,,,,###''
      ,#''                                            '''#######################'''  
     '                                                          ''''####''''         
             ,#######,   #######,   ,#######,      ##                                
            ,#'     '#,  ##    ##  ,#'     '#,    #''#        ######   ,####,        
            ##       ##  ##   ,#'  ##            #'  '#       #        #'  '#        
            ##       ##  #######   ##           ,######,      #####,   #    #        
            '#,     ,#'  ##    ##  '#,     ,#' ,#      #,         ##   #,  ,#        
             '#######'   ##     ##  '#######'  #'      '#     #####' # '####'        



                  #######################################################
                  #                        -***-                        #
                  #          Department of theory and spectroscopy      #
                  #    Directorship and core code : Frank Neese         #
                  #        Max Planck Institute fuer Kohlenforschung    #
                  #                Kaiser Wilhelm Platz 1               #
                  #                 D-45470 Muelheim/Ruhr               #
                  #                      Germany                        #
                  #                                                     #
                  #                  All rights reserved                #
                  #                        -***-                        #
                  #######################################################


                         Program Version 5.0.3 -  RELEASE  -


 With contributions from (in alphabetic order):
   Daniel Aravena         : Magnetic Suceptibility
   Michael Atanasov       : Ab Initio Ligand Field Theory (pilot matlab implementation)
   Alexander A. Auer      : GIAO ZORA, VPT2 properties, NMR spectrum
   Ute Becker             : Parallelization
   Giovanni Bistoni       : ED, misc. LED, open-shell LED, HFLD
   Martin Brehm           : Molecular dynamics
   Dmytro Bykov           : SCF Hessian
   Vijay G. Chilkuri      : MRCI spin determinant printing, contributions to CSF-ICE
   Dipayan Datta          : RHF DLPNO-CCSD density
   Achintya Kumar Dutta   : EOM-CC, STEOM-CC
   Dmitry Ganyushin       : Spin-Orbit,Spin-Spin,Magnetic field MRCI
   Miquel Garcia          : C-PCM and meta-GGA Hessian, CC/C-PCM, Gaussian charge scheme
   Yang Guo               : DLPNO-NEVPT2, F12-NEVPT2, CIM, IAO-localization
   Andreas Hansen         : Spin unrestricted coupled pair/coupled cluster methods
   Benjamin Helmich-Paris : MC-RPA, TRAH-SCF, COSX integrals
   Lee Huntington         : MR-EOM, pCC
   Robert Izsak           : Overlap fitted RIJCOSX, COSX-SCS-MP3, EOM
   Marcus Kettner         : VPT2
   Christian Kollmar      : KDIIS, OOCD, Brueckner-CCSD(T), CCSD density, CASPT2, CASPT2-K
   Simone Kossmann        : Meta GGA functionals, TD-DFT gradient, OOMP2, MP2 Hessian
   Martin Krupicka        : Initial AUTO-CI
   Lucas Lang             : DCDCAS
   Marvin Lechner         : AUTO-CI (C++ implementation), FIC-MRCC
   Dagmar Lenk            : GEPOL surface, SMD
   Dimitrios Liakos       : Extrapolation schemes; Compound Job, initial MDCI parallelization
   Dimitrios Manganas     : Further ROCIS development; embedding schemes
   Dimitrios Pantazis     : SARC Basis sets
   Anastasios Papadopoulos: AUTO-CI, single reference methods and gradients
   Taras Petrenko         : DFT Hessian,TD-DFT gradient, ASA, ECA, R-Raman, ABS, FL, XAS/XES, NRVS
   Peter Pinski           : DLPNO-MP2, DLPNO-MP2 Gradient
   Christoph Reimann      : Effective Core Potentials
   Marius Retegan         : Local ZFS, SOC
   Christoph Riplinger    : Optimizer, TS searches, QM/MM, DLPNO-CCSD(T), (RO)-DLPNO pert. Triples
   Tobias Risthaus        : Range-separated hybrids, TD-DFT gradient, RPA, STAB
   Michael Roemelt        : Original ROCIS implementation
   Masaaki Saitow         : Open-shell DLPNO-CCSD energy and density
   Barbara Sandhoefer     : DKH picture change effects
   Avijit Sen             : IP-ROCIS
   Kantharuban Sivalingam : CASSCF convergence, NEVPT2, FIC-MRCI
   Bernardo de Souza      : ESD, SOC TD-DFT
   Georgi Stoychev        : AutoAux, RI-MP2 NMR, DLPNO-MP2 response
   Willem Van den Heuvel  : Paramagnetic NMR
   Boris Wezisla          : Elementary symmetry handling
   Frank Wennmohs         : Technical directorship


 We gratefully acknowledge several colleagues who have allowed us to
 interface, adapt or use parts of their codes:
   Stefan Grimme, W. Hujo, H. Kruse, P. Pracht,  : VdW corrections, initial TS optimization,
                  C. Bannwarth, S. Ehlert          DFT functionals, gCP, sTDA/sTD-DF
   Ed Valeev, F. Pavosevic, A. Kumar             : LibInt (2-el integral package), F12 methods
   Garnet Chan, S. Sharma, J. Yang, R. Olivares  : DMRG
   Ulf Ekstrom                                   : XCFun DFT Library
   Mihaly Kallay                                 : mrcc  (arbitrary order and MRCC methods)
   Jiri Pittner, Ondrej Demel                    : Mk-CCSD
   Frank Weinhold                                : gennbo (NPA and NBO analysis)
   Christopher J. Cramer and Donald G. Truhlar   : smd solvation model
   Lars Goerigk                                  : TD-DFT with DH, B97 family of functionals
   V. Asgeirsson, H. Jonsson                     : NEB implementation
   FAccTs GmbH                                   : IRC, NEB, NEB-TS, DLPNO-Multilevel, CI-OPT
                                                   MM, QMMM, 2- and 3-layer-ONIOM, Crystal-QMMM,
                                                   LR-CPCM, SF, NACMEs, symmetry and pop. for TD-DFT,
                                                   nearIR, NL-DFT gradient (VV10), updates on ESD,
                                                   ML-optimized integration grids
   S Lehtola, MJT Oliveira, MAL Marques          : LibXC Library
   Liviu Ungur et al                             : ANISO software


 Your calculation uses the libint2 library for the computation of 2-el integrals
 For citations please refer to: http://libint.valeyev.net

 Your ORCA version has been built with support for libXC version: 5.1.0
 For citations please refer to: https://tddft.org/programs/libxc/

 This ORCA versions uses:
   CBLAS   interface :  Fast vector & matrix operations
   LAPACKE interface :  Fast linear algebra routines
   SCALAPACK package :  Parallel linear algebra routines
   Shared memory     :  Shared parallel matrices
   BLAS/LAPACK       :  OpenBLAS 0.3.15  USE64BITINT DYNAMIC_ARCH NO_AFFINITY SkylakeX SINGLE_THREADED
        Core in use  :  SkylakeX
   Copyright (c) 2011-2014, The OpenBLAS Project


Your calculation utilizes the atom-pairwise dispersion correction
based on tight binding partial charges (D4)
Cite in your paper:
E.Caldeweyher, C.Bannwarth, S.Grimme, J.Chem.Phys., (2017), 147, 034112.
E.Caldeweyher, S.Ehlert, A.Hansen, H.Neugebauer, S.Grimme, J.Chem.Phys., (2018), in progress.
   

XCFun DFT library Copyright 2009-2010 Ulf Ekstrom and contributors.
See http://admol.org/xcfun for more information.
This is free software; see the source code for copying conditions.
There is ABSOLUTELY NO WARRANTY; not even for MERCHANTABILITY or FITNESS FOR A PARTICULAR PURPOSE.
For details see the documentation.
Scientific users of this library should cite U. Ekstrom, L. Visscher, R. Bast, A. J. Thorvaldsen and K. Ruud;
J.Chem.Theor.Comp. 2010, DOI: 10.1021/ct100117s
XCFun Version 0.99 

================================================================================

cite the ECPs for Cs [Def2-ECP] as follows:
Ce-Yb(ecp-28): M. Dolg, H. Stoll, H.Preuss, J. Chem. Phys., 1989, 90, 1730-1734.
Y-Cd(ecp-28), Hf-Hg(ecp-46): D. Andrae,U. Haeussermann, M. Dolg, H. Stoll, H. Preuss, Theor. Chim. Acta, 1990, 77, 123-141.
In-Sb(ecp-28), Tl-Bi(ecp-46): B. Metz, H. Stoll, M. Dolg, J. Chem. Phys., 2000, 113, 2563-2569.
Te-Xe(ecp-28), Po-Rn(ecp-46): K. A. Peterson, D. Figgen, E. Goll, H. Stoll, M. Dolg, J. Chem. Phys., 2003, 119, 11113-11123.
Rb(ecp-28), Cs(ecp-46): T. Leininger, A. Nicklass, W. Kuechle, H. Stoll, M. Dolg, A. Bergner, Chem. Phys. Lett., 1996, 255, 274-280.
Sr(ecp-28), Ba(ecp-46): M. Kaupp, P. V. Schleyer, H. Stoll and H. Preuss, J. Chem. Phys., 1991, 94, 1360-1366.
La(ecp-46): M. Dolg, H. Stoll, A. Savin, H. Preuss, Theor. Chim. Acta, 1989, 75, 173-194.
Lu(ecp-28): X. Cao, M. Dolg, J. Chem. Phys., 2001, 115, 7348-7355.

ECP parameters for Cs [Def2-ECP] have been obtained from:
TURBOMOLE (7.0.2)

----- Orbital basis set information -----
Your calculation utilizes the basis: def2-TZVPP
   F. Weigend and R. Ahlrichs, Phys. Chem. Chem. Phys. 7, 3297 (2005).

----- AuxJ basis set information -----
Your calculation utilizes the auxiliary basis: def2/J
   F. Weigend, Phys. Chem. Chem. Phys. 8, 1057 (2006).

================================================================================
                                        WARNINGS
                       Please study these warnings very carefully!
================================================================================


WARNING: Geometry Optimization
  ===> : Switching off AutoStart
         For restart on a previous wavefunction, please use MOREAD

INFO   : the flag for use of the SHARK integral package has been found!

================================================================================
                                       INPUT FILE
================================================================================
NAME = Coordination_0.inp
|  1> ! opt freq wB97X Def2-tzvpp D4 Def2/J XYZFile SlowConv RIJCOSX CPCM(THF)
|  2> %scf MaxIter 200000 end
|  3> %geom
|  4> MaxIter 20000
|  5> end
|  6> %PAL NPROCS 1 END
|  7> 
|  8> * xyz 0 1
|  9>   Cs    -1.928961    4.147905    -2.738618
| 10>   N    -0.620123    2.69698    -0.67966
| 11>   C    -1.257502    3.489356    0.386759
| 12>   C    -2.743012    3.670327    0.138641
| 13>   H    -0.780254    4.481815    0.376242
| 14>   C    -0.916565    2.947926    1.81473
| 15>   C    -3.434089    2.732455    -0.550098
| 16>   H    -3.247561    4.536323    0.553731
| 17>   C    -2.75205    1.663273    -1.210823
| 18>   C    -1.361982    1.770811    -1.260218
| 19>   H    -3.276203    0.893491    -1.759837
| 20>   H    -4.509363    2.838849    -0.672308
| 21>   H    -0.82123    1.102294    -1.935848
| 22>   C    -1.453842    1.534719    2.032184
| 23>   C    -1.530062    3.885255    2.856546
| 24>   C    0.601895    2.943482    1.995602
| 25>   H    -2.536563    1.500555    1.896061
| 26>   H    -1.228284    1.196582    3.047244
| 27>   H    -0.999856    0.830808    1.333147
| 28>   H    1.081467    2.285861    1.270451
| 29>   H    0.866982    2.601493    2.999401
| 30>   H    1.012894    3.948481    1.862998
| 31>   H    -2.620824    3.873501    2.815755
| 32>   H    -1.196641    4.915685    2.702442
| 33>   H    -1.230262    3.583212    3.862874
| 34> **                         ****END OF INPUT****
================================================================================

                       *****************************
                       * Geometry Optimization Run *
                       *****************************

Geometry optimization settings:
Update method            Update   .... BFGS
Choice of coordinates    CoordSys .... Z-matrix Internals
Initial Hessian          InHess   .... Almoef's Model

Convergence Tolerances:
Energy Change            TolE     ....  5.0000e-06 Eh
Max. Gradient            TolMAXG  ....  3.0000e-04 Eh/bohr
RMS Gradient             TolRMSG  ....  1.0000e-04 Eh/bohr
Max. Displacement        TolMAXD  ....  4.0000e-03 bohr
RMS Displacement         TolRMSD  ....  2.0000e-03 bohr
Strict Convergence                ....  False
------------------------------------------------------------------------------
                        ORCA OPTIMIZATION COORDINATE SETUP
------------------------------------------------------------------------------

The optimization will be done in new redundant internal coordinates
Making redundant internal coordinates   ...  (new redundants) done
Evaluating the initial hessian          ...  (Almloef) done
Evaluating the coordinates              ...  done
Calculating the B-matrix                .... done
Calculating the G-matrix                .... done
Diagonalizing the G-matrix              .... done
The first mode is                       ....  206
The number of degrees of freedom        ....   69

    -----------------------------------------------------------------
                    Redundant Internal Coordinates


    -----------------------------------------------------------------
         Definition                    Initial Value    Approx d2E/dq
    -----------------------------------------------------------------
      1. B(N   1,Cs  0)                  2.8386         0.006364   
      2. B(C   2,Cs  0)                  3.2638         0.001490   
      3. B(C   2,N   1)                  1.4736         0.411690   
      4. B(C   3,Cs  0)                  3.0281         0.003542   
      5. B(C   3,C   2)                  1.5169         0.391960   
      6. B(H   4,C   2)                  1.1013         0.345464   
      7. B(H   4,Cs  0)                  3.3367         0.000218   
      8. B(C   5,C   2)                  1.5648         0.328787   
      9. B(C   6,Cs  0)                  3.0097         0.003789   
     10. B(C   6,C   3)                  1.3533         0.714847   
     11. B(H   7,C   3)                  1.0848         0.367028   
     12. B(H   7,Cs  0)                  3.5678         0.000093   
     13. B(C   8,C   6)                  1.4300         0.539423   
     14. B(C   8,Cs  0)                  3.0307         0.003508   
     15. B(C   9,N   1)                  1.3211         0.720891   
     16. B(C   9,C   8)                  1.3951         0.613208   
     17. B(C   9,Cs  0)                  2.8562         0.006661   
     18. B(H  10,C   8)                  1.0811         0.372106   
     19. B(H  10,Cs  0)                  3.6557         0.000068   
     20. B(H  11,C   6)                  1.0874         0.363537   
     21. B(H  11,Cs  0)                  3.5555         0.000098   
     22. B(H  12,C   9)                  1.0935         0.355463   
     23. B(H  12,Cs  0)                  3.3388         0.000217   
     24. B(C  13,C   5)                  1.5275         0.377089   
     25. B(C  14,C   5)                  1.5298         0.373824   
     26. B(C  15,C   5)                  1.5292         0.374673   
     27. B(H  16,C  13)                  1.0918         0.357754   
     28. B(H  17,C  13)                  1.0934         0.355609   
     29. B(H  18,C  13)                  1.0910         0.358800   
     30. B(H  19,C  15)                  1.0901         0.359979   
     31. B(H  20,C  15)                  1.0931         0.356039   
     32. B(H  21,C  15)                  1.0939         0.355031   
     33. B(H  22,C  14)                  1.0916         0.358006   
     34. B(H  23,C  14)                  1.0939         0.354926   
     35. B(H  24,C  14)                  1.0926         0.356658   
     36. A(C   3,Cs  0,C   6)           25.9029         0.127008   
     37. A(N   1,Cs  0,C   8)           48.7399         0.131345   
     38. A(C   8,Cs  0,C   9)           27.2100         0.132092   
     39. A(C   2,Cs  0,C   9)           45.2167         0.124499   
     40. A(C   3,Cs  0,C   8)           47.0540         0.126352   
     41. A(N   1,Cs  0,C   6)           57.5043         0.132089   
     42. A(C   2,Cs  0,C   6)           46.5033         0.120243   
     43. A(C   2,Cs  0,C   3)           27.5759         0.119770   
     44. A(C   6,Cs  0,C   9)           48.0473         0.132849   
     45. A(N   1,Cs  0,C   3)           49.7687         0.131436   
     46. A(N   1,Cs  0,C   2)           26.8016         0.123883   
     47. A(N   1,Cs  0,C   9)           26.8248         0.137957   
     48. A(C   3,Cs  0,C   9)           55.2688         0.132185   
     49. A(C   6,Cs  0,C   8)           27.3853         0.126927   
     50. A(C   2,Cs  0,C   8)           53.6816         0.119704   
     51. A(Cs  0,N   1,C   2)           92.9026         0.205473   
     52. A(C   2,N   1,C   9)          116.8807         0.409109   
     53. A(Cs  0,N   1,C   9)           77.3296         0.221218   
     54. A(C   3,C   2,H   4)          108.3792         0.324668   
     55. A(Cs  0,C   2,C   5)          171.3064         0.169929   
     56. A(H   4,C   2,C   5)          103.0684         0.315477   
     57. A(N   1,C   2,C   3)          111.6765         0.370184   
     58. A(Cs  0,C   2,H   4)           84.1558         0.159783   
     59. A(Cs  0,C   2,N   1)           60.2959         0.173454   
     60. A(C   3,C   2,C   5)          113.8234         0.358449   
     61. A(N   1,C   2,H   4)          106.8720         0.325341   
     62. A(N   1,C   2,C   5)          112.3418         0.359219   
     63. A(Cs  0,C   2,C   3)           67.5320         0.173213   
     64. A(Cs  0,C   3,H   7)          111.2667         0.176297   
     65. A(Cs  0,C   3,C   6)           76.2911         0.206373   
     66. A(Cs  0,C   3,C   2)           84.8921         0.191447   
     67. A(C   2,C   3,C   6)          120.0419         0.410233   
     68. A(C   6,C   3,H   7)          120.6935         0.362728   
     69. A(C   2,C   3,H   7)          119.2172         0.327920   
     70. A(C  14,C   5,C  15)          108.6291         0.363575   
     71. A(C  13,C   5,C  15)          109.2536         0.364116   
     72. A(C   2,C   5,C  15)          108.9836         0.355712   
     73. A(C  13,C   5,C  14)          109.2001         0.363975   
     74. A(C   2,C   5,C  14)          108.7894         0.355575   
     75. A(C   2,C   5,C  13)          111.9262         0.356100   
     76. A(Cs  0,C   6,H  11)          111.5164         0.177449   
     77. A(Cs  0,C   6,C   8)           77.1226         0.200820   
     78. A(Cs  0,C   6,C   3)           77.8061         0.208179   
     79. A(C   3,C   6,C   8)          120.6462         0.434311   
     80. A(C   8,C   6,H  11)          119.5283         0.345273   
     81. A(C   3,C   6,H  11)          119.6257         0.362137   
     82. A(Cs  0,C   8,C   9)           69.4117         0.202125   
     83. A(C   9,C   8,H  10)          121.3326         0.354213   
     84. A(Cs  0,C   8,C   6)           75.4921         0.198890   
     85. A(C   6,C   8,H  10)          122.3975         0.346628   
     86. A(C   6,C   8,C   9)          115.7191         0.422530   
     87. A(Cs  0,C   8,H  10)          117.3503         0.176381   
     88. A(N   1,C   9,C   8)          126.7284         0.442225   
     89. A(C   8,C   9,H  12)          117.8703         0.351481   
     90. A(N   1,C   9,H  12)          114.9878         0.359030   
     91. A(Cs  0,C   9,H  12)          106.6877         0.188986   
     92. A(Cs  0,C   9,C   8)           83.3782         0.219791   
     93. A(Cs  0,C   9,N   1)           75.8456         0.223553   
     94. A(H  17,C  13,H  18)          108.0262         0.290102   
     95. A(H  16,C  13,H  18)          108.2157         0.290376   
     96. A(C   5,C  13,H  18)          111.0609         0.324625   
     97. A(H  16,C  13,H  17)          108.0980         0.289969   
     98. A(C   5,C  13,H  17)          110.2257         0.324149   
     99. A(C   5,C  13,H  16)          111.1021         0.324469   
    100. A(H  23,C  14,H  24)          107.8489         0.289743   
    101. A(H  22,C  14,H  24)          107.7955         0.290135   
    102. A(C   5,C  14,H  24)          110.3536         0.323843   
    103. A(H  22,C  14,H  23)          108.0253         0.289914   
    104. A(C   5,C  14,H  23)          111.0371         0.323585   
    105. A(C   5,C  14,H  22)          111.6340         0.324044   
    106. A(H  20,C  15,H  21)          107.9179         0.289677   
    107. A(H  19,C  15,H  21)          107.9582         0.290178   
    108. A(C   5,C  15,H  21)          110.8600         0.323721   
    109. A(H  19,C  15,H  20)          108.3879         0.290307   
    110. A(C   5,C  15,H  20)          110.5078         0.323872   
    111. A(C   5,C  15,H  19)          111.0952         0.324457   
    112. D(C   9,N   1,Cs  0,C   6)     60.2105         0.001502   
    113. D(C   9,N   1,Cs  0,C   3)     91.1053         0.001502   
    114. D(C   2,N   1,Cs  0,C   6)    -56.7011         0.001502   
    115. D(C   9,N   1,Cs  0,C   2)    116.9116         0.001502   
    116. D(C   2,N   1,Cs  0,C   8)    -89.3849         0.001502   
    117. D(C   2,N   1,Cs  0,C   9)   -116.9116         0.001502   
    118. D(C   9,N   1,Cs  0,C   8)     27.5267         0.001502   
    119. D(C   2,N   1,Cs  0,C   3)    -25.8064         0.001502   
    120. D(C   3,C   2,N   1,C   9)    -31.7046         0.015482   
    121. D(H   4,C   2,Cs  0,C   8)   -177.8861         0.001500   
    122. D(C   5,C   2,Cs  0,C   3)    100.7872         0.001500   
    123. D(C   3,C   2,Cs  0,C   6)    -30.4757         0.001500   
    124. D(N   1,C   2,Cs  0,C   9)     34.5366         0.001500   
    125. D(C   3,C   2,Cs  0,C   8)    -65.2227         0.001500   
    126. D(N   1,C   2,Cs  0,C   8)     68.8928         0.001500   
    127. D(C   5,C   2,Cs  0,C   9)      1.2084         0.001500   
    128. D(H   4,C   2,Cs  0,C   9)    147.7577         0.001500   
    129. D(C   3,C   2,N   1,Cs  0)     45.5554         0.015482   
    130. D(N   1,C   2,Cs  0,C   3)    134.1154         0.001500   
    131. D(H   4,C   2,Cs  0,C   6)   -143.1391         0.001500   
    132. D(C   5,C   2,Cs  0,C   6)     70.3116         0.001500   
    133. D(C   5,C   2,Cs  0,N   1)    -33.3282         0.001500   
    134. D(C   5,C   2,Cs  0,C   8)     35.5646         0.001500   
    135. D(H   4,C   2,N   1,C   9)   -150.0711         0.015482   
    136. D(H   4,C   2,Cs  0,N   1)    113.2211         0.001500   
    137. D(C   5,C   2,N   1,Cs  0)    174.8486         0.015482   
    138. D(C   3,C   2,Cs  0,C   9)    -99.5789         0.001500   
    139. D(H   4,C   2,Cs  0,C   3)   -112.6634         0.001500   
    140. D(C   5,C   2,N   1,C   9)     97.5886         0.015482   
    141. D(H   4,C   2,N   1,Cs  0)    -72.8111         0.015482   
    142. D(C   3,C   2,Cs  0,N   1)   -134.1154         0.001500   
    143. D(N   1,C   2,Cs  0,C   6)    103.6398         0.001500   
    144. D(Cs  0,C   2,N   1,C   9)    -77.2600         0.015482   
    145. D(Cs  0,C   3,C   2,C   5)   -170.6590         0.012952   
    146. D(Cs  0,C   3,C   2,H   4)     75.3142         0.012952   
    147. D(H   7,C   3,C   2,H   4)    -36.2317         0.012952   
    148. D(H   7,C   3,C   2,N   1)   -153.6943         0.012952   
    149. D(C   6,C   3,C   2,Cs  0)     70.9403         0.012952   
    150. D(C   6,C   3,C   2,C   5)    -99.7187         0.012952   
    151. D(C   6,C   3,C   2,H   4)    146.2545         0.012952   
    152. D(Cs  0,C   3,C   2,N   1)    -42.1484         0.012952   
    153. D(H   7,C   3,Cs  0,C   6)   -117.9605         0.001501   
    154. D(H   7,C   3,Cs  0,C   2)    119.4122         0.001501   
    155. D(C   6,C   3,Cs  0,C   8)    -30.6590         0.001501   
    156. D(H   7,C   3,Cs  0,C   9)    177.7991         0.001501   
    157. D(C   6,C   3,C   2,N   1)     28.7919         0.012952   
    158. D(C   6,C   3,Cs  0,C   2)   -122.6273         0.001501   
    159. D(C   6,C   3,Cs  0,N   1)    -97.5383         0.001501   
    160. D(H   7,C   3,Cs  0,N   1)    144.5012         0.001501   
    161. D(C   6,C   3,Cs  0,C   9)    -64.2404         0.001501   
    162. D(C   2,C   3,Cs  0,C   6)    122.6273         0.001501   
    163. D(H   7,C   3,C   2,Cs  0)   -111.5459         0.012952   
    164. D(C   2,C   3,Cs  0,N   1)     25.0891         0.001501   
    165. D(H   7,C   3,C   2,C   5)     77.7951         0.012952   
    166. D(C   2,C   3,Cs  0,C   9)     58.3869         0.001501   
    167. D(H   7,C   3,Cs  0,C   8)   -148.6195         0.001501   
    168. D(C   2,C   3,Cs  0,C   8)     91.9683         0.001501   
    169. D(C  13,C   5,C   2,C   3)     64.7775         0.009317   
    170. D(C  13,C   5,C   2,H   4)   -178.0720         0.009317   
    171. D(C  14,C   5,C   2,N   1)    175.8486         0.009317   
    172. D(C  13,C   5,C   2,N   1)    -63.3931         0.009317   
    173. D(C  14,C   5,C   2,C   3)    -55.9807         0.009317   
    174. D(C  13,C   5,C   2,Cs  0)    -32.3309         0.009317   
    175. D(C  15,C   5,C   2,Cs  0)     88.6251         0.009317   
    176. D(C  15,C   5,C   2,H   4)    -57.1160         0.009317   
    177. D(C  15,C   5,C   2,C   3)   -174.2665         0.009317   
    178. D(C  15,C   5,C   2,N   1)     57.5629         0.009317   
    179. D(C  14,C   5,C   2,Cs  0)   -153.0892         0.009317   
    180. D(C  14,C   5,C   2,H   4)     61.1697         0.009317   
    181. D(Cs  0,C   6,C   3,H   7)    106.8199         0.042290   
    182. D(Cs  0,C   6,C   3,C   2)    -75.7035         0.042290   
    183. D(H  11,C   6,C   3,Cs  0)   -107.9855         0.042290   
    184. D(H  11,C   6,C   3,C   2)    176.3110         0.042290   
    185. D(C   8,C   6,C   3,Cs  0)     66.8550         0.042290   
    186. D(C   8,C   6,C   3,H   7)    173.6749         0.042290   
    187. D(C   8,C   6,C   3,C   2)     -8.8485         0.042290   
    188. D(H  11,C   6,Cs  0,C   9)   -147.1274         0.001501   
    189. D(H  11,C   6,Cs  0,C   8)   -116.9563         0.001501   
    190. D(H  11,C   6,Cs  0,C   3)    117.2860         0.001501   
    191. D(H  11,C   6,Cs  0,C   2)    149.7960         0.001501   
    192. D(H  11,C   6,Cs  0,N   1)   -178.9035         0.001501   
    193. D(C   8,C   6,Cs  0,C   3)   -125.7577         0.001501   
    194. D(C   8,C   6,Cs  0,C   2)    -93.2477         0.001501   
    195. D(C   8,C   6,Cs  0,N   1)    -61.9472         0.001501   
    196. D(C   3,C   6,Cs  0,C   9)     95.5867         0.001501   
    197. D(H  11,C   6,C   3,H   7)     -1.1656         0.042290   
    198. D(C   8,C   6,Cs  0,C   9)    -30.1710         0.001501   
    199. D(C   3,C   6,Cs  0,C   2)     32.5100         0.001501   
    200. D(C   3,C   6,Cs  0,N   1)     63.8105         0.001501   
    201. D(C   3,C   6,Cs  0,C   8)    125.7577         0.001501   
    202. D(Cs  0,C   8,C   6,C   3)    -67.2136         0.023156   
    203. D(H  10,C   8,C   6,Cs  0)   -113.4433         0.023156   
    204. D(H  10,C   8,C   6,H  11)     -5.8115         0.023156   
    205. D(C   9,C   8,C   6,Cs  0)     58.1421         0.023156   
    206. D(C   9,C   8,C   6,H  11)    165.7739         0.023156   
    207. D(C   9,C   8,C   6,C   3)     -9.0715         0.023156   
    208. D(H  10,C   8,Cs  0,C   6)    119.2908         0.001501   
    209. D(H  10,C   8,Cs  0,C   3)    148.2568         0.001501   
    210. D(H  10,C   8,Cs  0,C   2)   -176.7000         0.001501   
    211. D(H  10,C   8,Cs  0,N   1)   -142.6731         0.001501   
    212. D(C   9,C   8,Cs  0,C   6)   -125.1723         0.001501   
    213. D(H  10,C   8,Cs  0,C   9)   -115.5368         0.001501   
    214. D(C   9,C   8,Cs  0,C   3)    -96.2063         0.001501   
    215. D(C   9,C   8,Cs  0,C   2)    -61.1631         0.001501   
    216. D(C   9,C   8,Cs  0,N   1)    -27.1363         0.001501   
    217. D(H  10,C   8,C   6,C   3)    179.3431         0.023156   
    218. D(C   6,C   8,Cs  0,C   9)    125.1723         0.001501   
    219. D(C   6,C   8,Cs  0,C   3)     28.9660         0.001501   
    220. D(C   6,C   8,Cs  0,C   2)     64.0092         0.001501   
    221. D(Cs  0,C   8,C   6,H  11)    107.6319         0.023156   
    222. D(C   6,C   8,Cs  0,N   1)     98.0361         0.001501   
    223. D(C   8,C   9,N   1,Cs  0)    -70.3329         0.047102   
    224. D(C   8,C   9,N   1,C   2)     16.4700         0.047102   
    225. D(H  12,C   9,Cs  0,C   8)    117.1616         0.001502   
    226. D(H  12,C   9,Cs  0,C   3)    179.4706         0.001502   
    227. D(H  12,C   9,Cs  0,C   2)   -146.7893         0.001502   
    228. D(H  12,C   9,Cs  0,N   1)   -112.2843         0.001502   
    229. D(C   8,C   9,Cs  0,C   6)     30.3693         0.001502   
    230. D(C   8,C   9,Cs  0,C   3)     62.3090         0.001502   
    231. D(C   8,C   9,Cs  0,C   2)     96.0491         0.001502   
    232. D(C   8,C   9,Cs  0,N   1)    130.5541         0.001502   
    233. D(H  12,C   9,Cs  0,C   6)    147.5309         0.001502   
    234. D(N   1,C   9,Cs  0,C   8)   -130.5541         0.001502   
    235. D(N   1,C   9,Cs  0,C   6)   -100.1848         0.001502   
    236. D(N   1,C   9,Cs  0,C   3)    -68.2451         0.001502   
    237. D(H  12,C   9,N   1,C   2)   -171.1220         0.047102   
    238. D(N   1,C   9,Cs  0,C   2)    -34.5049         0.001502   
    239. D(Cs  0,C   9,C   8,H  10)    110.2356         0.030349   
    240. D(Cs  0,C   9,C   8,C   6)    -61.4471         0.030349   
    241. D(H  12,C   9,C   8,Cs  0)   -105.4041         0.030349   
    242. D(H  12,C   9,C   8,H  10)      4.8315         0.030349   
    243. D(H  12,C   9,C   8,C   6)   -166.8512         0.030349   
    244. D(N   1,C   9,C   8,Cs  0)     66.8104         0.030349   
    245. D(N   1,C   9,C   8,H  10)    177.0460         0.030349   
    246. D(N   1,C   9,C   8,C   6)      5.3633         0.030349   
    247. D(Cs  0,C   9,N   1,C   2)     86.8029         0.047102   
    248. D(H  12,C   9,N   1,Cs  0)    102.0751         0.047102   
    249. D(H  18,C  13,C   5,C  15)    -58.6930         0.011342   
    250. D(H  18,C  13,C   5,C  14)   -177.3739         0.011342   
    251. D(H  18,C  13,C   5,C   2)     62.1065         0.011342   
    252. D(H  17,C  13,C   5,C  15)     60.9949         0.011342   
    253. D(H  17,C  13,C   5,C  14)    -57.6861         0.011342   
    254. D(H  17,C  13,C   5,C   2)   -178.2056         0.011342   
    255. D(H  16,C  13,C   5,C  15)   -179.2009         0.011342   
    256. D(H  16,C  13,C   5,C  14)     62.1182         0.011342   
    257. D(H  16,C  13,C   5,C   2)    -58.4014         0.011342   
    258. D(H  24,C  14,C   5,C  13)     62.7975         0.011158   
    259. D(H  24,C  14,C   5,C   2)   -174.7811         0.011158   
    260. D(H  23,C  14,C   5,C  15)     63.2622         0.011158   
    261. D(H  23,C  14,C   5,C  13)   -177.6683         0.011158   
    262. D(H  23,C  14,C   5,C   2)    -55.2468         0.011158   
    263. D(H  22,C  14,C   5,C  15)   -176.1273         0.011158   
    264. D(H  22,C  14,C   5,C  13)    -57.0577         0.011158   
    265. D(H  24,C  14,C   5,C  15)    -56.2720         0.011158   
    266. D(H  22,C  14,C   5,C   2)     65.3637         0.011158   
    267. D(H  21,C  15,C   5,C  14)    -59.9477         0.011205   
    268. D(H  21,C  15,C   5,C  13)   -178.9837         0.011205   
    269. D(H  21,C  15,C   5,C   2)     58.4387         0.011205   
    270. D(H  20,C  15,C   5,C  14)     59.6590         0.011205   
    271. D(H  20,C  15,C   5,C  13)    -59.3770         0.011205   
    272. D(H  20,C  15,C   5,C   2)    178.0454         0.011205   
    273. D(H  19,C  15,C   5,C  14)   -179.9910         0.011205   
    274. D(H  19,C  15,C   5,C  13)     60.9730         0.011205   
    275. D(H  19,C  15,C   5,C   2)    -61.6046         0.011205   
    -----------------------------------------------------------------

Number of atoms                         .... 25
Number of degrees of freedom            .... 275

         *************************************************************
         *                GEOMETRY OPTIMIZATION CYCLE   1            *
         *************************************************************
---------------------------------
CARTESIAN COORDINATES (ANGSTROEM)
---------------------------------
  Cs    -1.928961    4.147905   -2.738618
  N     -0.620123    2.696980   -0.679660
  C     -1.257502    3.489356    0.386759
  C     -2.743012    3.670327    0.138641
  H     -0.780254    4.481815    0.376242
  C     -0.916565    2.947926    1.814730
  C     -3.434089    2.732455   -0.550098
  H     -3.247561    4.536323    0.553731
  C     -2.752050    1.663273   -1.210823
  C     -1.361982    1.770811   -1.260218
  H     -3.276203    0.893491   -1.759837
  H     -4.509363    2.838849   -0.672308
  H     -0.821230    1.102294   -1.935848
  C     -1.453842    1.534719    2.032184
  C     -1.530062    3.885255    2.856546
  C      0.601895    2.943482    1.995602
  H     -2.536563    1.500555    1.896061
  H     -1.228284    1.196582    3.047244
  H     -0.999856    0.830808    1.333147
  H      1.081467    2.285861    1.270451
  H      0.866982    2.601493    2.999401
  H      1.012894    3.948481    1.862998
  H     -2.620824    3.873501    2.815755
  H     -1.196641    4.915685    2.702442
  H     -1.230262    3.583212    3.862874

----------------------------
CARTESIAN COORDINATES (A.U.)
----------------------------
  NO LB      ZA    FRAG     MASS         X           Y           Z
   0 Cs    9.0000*   0   132.905   -3.645208    7.838404   -5.175238
   1 N     7.0000    0    14.007   -1.171863    5.096554   -1.284371
   2 C     6.0000    0    12.011   -2.376334    6.593927    0.730869
   3 C     6.0000    0    12.011   -5.183541    6.935913    0.261994
   4 H     1.0000    0     1.008   -1.474466    8.469403    0.710994
   5 C     6.0000    0    12.011   -1.732057    5.570773    3.429343
   6 C     6.0000    0    12.011   -6.489488    5.163592   -1.039535
   7 H     1.0000    0     1.008   -6.137001    8.572408    1.046400
   8 C     6.0000    0    12.011   -5.200621    3.143130   -2.288124
   9 C     6.0000    0    12.011   -2.573773    3.346348   -2.381467
  10 H     1.0000    0     1.008   -6.191126    1.688453   -3.325610
  11 H     1.0000    0     1.008   -8.521461    5.364647   -1.270478
  12 H     1.0000    0     1.008   -1.551900    2.083034   -3.658223
  13 C     6.0000    0    12.011   -2.747363    2.900199    3.840271
  14 C     6.0000    0    12.011   -2.891398    7.342068    5.398090
  15 C     6.0000    0    12.011    1.137417    5.562375    3.771141
  16 H     1.0000    0     1.008   -4.793409    2.835638    3.583036
  17 H     1.0000    0     1.008   -2.321120    2.261212    5.758457
  18 H     1.0000    0     1.008   -1.889454    1.570000    2.519283
  19 H     1.0000    0     1.008    2.043676    4.319651    2.400804
  20 H     1.0000    0     1.008    1.638359    4.916109    5.668046
  21 H     1.0000    0     1.008    1.914092    7.461548    3.520556
  22 H     1.0000    0     1.008   -4.952640    7.319856    5.321006
  23 H     1.0000    0     1.008   -2.261324    9.289298    5.106875
  24 H     1.0000    0     1.008   -2.324858    6.771289    7.299774
* core charge reduced due to ECP

--------------------------------
INTERNAL COORDINATES (ANGSTROEM)
--------------------------------
 Cs     0   0   0     0.000000000000     0.00000000     0.00000000
 N      1   0   0     2.838582095278     0.00000000     0.00000000
 C      2   1   0     1.473553934737    92.90257283     0.00000000
 C      3   2   1     1.516922214507   111.67654113    45.55543230
 H      3   2   1     1.101295204509   106.87198001   287.18894427
 C      3   2   1     1.564763771216   112.34182099   174.84860770
 C      4   3   2     1.353348705410   120.04191502    28.79191122
 H      4   3   2     1.084812644431   119.21719685   206.30573286
 C      7   4   3     1.429994710574   120.64620599   351.15146556
 C      2   1   3     1.321056919215    77.32962391   116.91164945
 H      9   7   4     1.081072184051   122.39746134   179.34308882
 H      7   4   3     1.087413970120   119.62571754   176.31101246
 H     10   2   1     1.093528052540   114.98777506   102.07514022
 C      6   3   2     1.527451093061   111.92622435   296.60686120
 C      6   3   2     1.529818551694   108.78938233   175.84861109
 C      6   3   2     1.529200837405   108.98362626    57.56287218
 H     14   6   3     1.091779013293   111.10208696   301.59861083
 H     14   6   3     1.093416592948   110.22569414   181.79440346
 H     14   6   3     1.090984285627   111.06092562    62.10653910
 H     16   6   3     1.090091122625   111.09523293   298.39535267
 H     16   6   3     1.093087382642   110.50782192   178.04539086
 H     16   6   3     1.093858760909   110.85999314    58.43868880
 H     15   6   3     1.091587743995   111.63404443    65.36370999
 H     15   6   3     1.093939482310   111.03711694   304.75316380
 H     15   6   3     1.092614322363   110.35355329   185.21892073

---------------------------
INTERNAL COORDINATES (A.U.)
---------------------------
 Cs     0   0   0     0.000000000000     0.00000000     0.00000000
 N      1   0   0     5.364142768728     0.00000000     0.00000000
 C      2   1   0     2.784613380214    92.90257283     0.00000000
 C      3   2   1     2.866567551880   111.67654113    45.55543230
 H      3   2   1     2.081146329122   106.87198001   287.18894427
 C      3   2   1     2.956974991880   112.34182099   174.84860770
 C      4   3   2     2.557458416921   120.04191502    28.79191122
 H      4   3   2     2.049998804589   119.21719685   206.30573286
 C      7   4   3     2.702298375941   120.64620599   351.15146556
 C      2   1   3     2.496435784638    77.32962391   116.91164945
 H      9   7   4     2.042930358857   122.39746134   179.34308882
 H      7   4   3     2.054914597727   119.62571754   176.31101246
 H     10   2   1     2.066468539062   114.98777506   102.07514022
 C      6   3   2     2.886464248844   111.92622435   296.60686120
 C      6   3   2     2.890938097293   108.78938233   175.84861109
 C      6   3   2     2.889770786458   108.98362626    57.56287218
 H     14   6   3     2.063163333886   111.10208696   301.59861083
 H     14   6   3     2.066257910956   110.22569414   181.79440346
 H     14   6   3     2.061661516248   111.06092562    62.10653910
 H     16   6   3     2.059973682780   111.09523293   298.39535267
 H     16   6   3     2.065635793638   110.50782192   178.04539086
 H     16   6   3     2.067093487309   110.85999314    58.43868880
 H     15   6   3     2.062801887296   111.63404443    65.36370999
 H     15   6   3     2.067246028650   111.03711694   304.75316380
 H     15   6   3     2.064741839266   110.35355329   185.21892073

---------------------
BASIS SET INFORMATION
---------------------
There are 4 groups of distinct atoms

 Group   1 Type Cs  : 7s6p3d1f contracted to 5s3p3d1f pattern {31111/411/111/1}
 Group   2 Type N   : 11s6p2d1f contracted to 5s3p2d1f pattern {62111/411/11/1}
 Group   3 Type C   : 11s6p2d1f contracted to 5s3p2d1f pattern {62111/411/11/1}
 Group   4 Type H   : 5s2p1d contracted to 3s2p1d pattern {311/11/1}

Atom   0Cs   basis set group =>   1
Atom   1N    basis set group =>   2
Atom   2C    basis set group =>   3
Atom   3C    basis set group =>   3
Atom   4H    basis set group =>   4
Atom   5C    basis set group =>   3
Atom   6C    basis set group =>   3
Atom   7H    basis set group =>   4
Atom   8C    basis set group =>   3
Atom   9C    basis set group =>   3
Atom  10H    basis set group =>   4
Atom  11H    basis set group =>   4
Atom  12H    basis set group =>   4
Atom  13C    basis set group =>   3
Atom  14C    basis set group =>   3
Atom  15C    basis set group =>   3
Atom  16H    basis set group =>   4
Atom  17H    basis set group =>   4
Atom  18H    basis set group =>   4
Atom  19H    basis set group =>   4
Atom  20H    basis set group =>   4
Atom  21H    basis set group =>   4
Atom  22H    basis set group =>   4
Atom  23H    basis set group =>   4
Atom  24H    basis set group =>   4
---------------------------------
AUXILIARY/J BASIS SET INFORMATION
---------------------------------
There are 4 groups of distinct atoms

 Group   1 Type Cs  : 11s5p5d3f1g contracted to 8s4p4d1f1g pattern {41111111/2111/2111/3/1}
 Group   2 Type N   : 12s5p4d2f1g contracted to 6s4p3d1f1g pattern {711111/2111/211/2/1}
 Group   3 Type C   : 12s5p4d2f1g contracted to 6s4p3d1f1g pattern {711111/2111/211/2/1}
 Group   4 Type H   : 5s2p1d contracted to 3s1p1d pattern {311/2/1}

Atom   0Cs   basis set group =>   1
Atom   1N    basis set group =>   2
Atom   2C    basis set group =>   3
Atom   3C    basis set group =>   3
Atom   4H    basis set group =>   4
Atom   5C    basis set group =>   3
Atom   6C    basis set group =>   3
Atom   7H    basis set group =>   4
Atom   8C    basis set group =>   3
Atom   9C    basis set group =>   3
Atom  10H    basis set group =>   4
Atom  11H    basis set group =>   4
Atom  12H    basis set group =>   4
Atom  13C    basis set group =>   3
Atom  14C    basis set group =>   3
Atom  15C    basis set group =>   3
Atom  16H    basis set group =>   4
Atom  17H    basis set group =>   4
Atom  18H    basis set group =>   4
Atom  19H    basis set group =>   4
Atom  20H    basis set group =>   4
Atom  21H    basis set group =>   4
Atom  22H    basis set group =>   4
Atom  23H    basis set group =>   4
Atom  24H    basis set group =>   4
-------------------------
ECP PARAMETER INFORMATION
-------------------------

 Group 1, Type Cs ECP Def2-ECP (replacing 46 core electrons, lmax=3)

Atom   0Cs   ECP group =>   1

------------------------------------------------------------------------------
                           ORCA GTO INTEGRAL CALCULATION
                           -- RI-GTO INTEGRALS CHOSEN --
------------------------------------------------------------------------------
------------------------------------------------------------------------------
                   ___                                                        
                  /   \      - P O W E R E D   B Y -                         
                 /     \                                                     
                 |  |  |   _    _      __       _____    __    __             
                 |  |  |  | |  | |    /  \     |  _  \  |  |  /  |          
                  \  \/   | |  | |   /    \    | | | |  |  | /  /          
                 / \  \   | |__| |  /  /\  \   | |_| |  |  |/  /          
                |  |  |   |  __  | /  /__\  \  |    /   |      \           
                |  |  |   | |  | | |   __   |  |    \   |  |\   \          
                \     /   | |  | | |  |  |  |  | |\  \  |  | \   \       
                 \___/    |_|  |_| |__|  |__|  |_| \__\ |__|  \__/        
                                                                              
                      - O R C A' S   B I G   F R I E N D -                    
                                      &                                       
                       - I N T E G R A L  F E E D E R -                       
                                                                              
 v1 FN, 2020, v2 2021                                                         
------------------------------------------------------------------------------


Reading SHARK input file Coordination_0.SHARKINP.tmp ... ok
----------------------
SHARK INTEGRAL PACKAGE
----------------------

Number of atoms                             ...     25
Number of basis functions                   ...    542
Number of shells                            ...    206
Maximum angular momentum                    ...      3
Integral batch strategy                     ... SHARK/LIBINT Hybrid
RI-J (if used) integral strategy            ... SPLIT-RIJ (Revised 2003 algorithm where possible)
Printlevel                                  ...      1
Contraction scheme used                     ... SEGMENTED contraction
Coulomb Range Separation                    ... NOT USED
Exchange Range Separation                   ... Long Range
   Mu parameter                             ...  0.300000
   Scaling (regular/separated)              ...  0.157706  0.842294
Finite Nucleus Model                        ... NOT USED
Auxiliary Coulomb fitting basis             ... AVAILABLE
   # of basis functions in Aux-J            ...    700
   # of shells in Aux-J                     ...    238
   Maximum angular momentum in Aux-J        ...      4
Auxiliary J/K fitting basis                 ... NOT available
Auxiliary Correlation fitting basis         ... NOT available
Auxiliary 'external' fitting basis          ... NOT available
Integral threshold                          ...     2.500000e-11
Primitive cut-off                           ...     2.500000e-12
Primitive pair pre-selection threshold      ...     2.500000e-12

Calculating pre-screening integrals         ... done (  0.1 sec) Dimension = 206
Organizing shell pair data                  ... done (  0.2 sec)
Shell pair information
Total number of shell pairs                 ...     21321
Shell pairs after pre-screening             ...     19140
Total number of primitive shell pairs       ...     54556
Primitive shell pairs kept                  ...     37545
          la=0 lb=0:   4168 shell pairs
          la=1 lb=0:   5349 shell pairs
          la=1 lb=1:   1753 shell pairs
          la=2 lb=0:   3164 shell pairs
          la=2 lb=1:   2061 shell pairs
          la=2 lb=2:    621 shell pairs
          la=3 lb=0:    969 shell pairs
          la=3 lb=1:    621 shell pairs
          la=3 lb=2:    369 shell pairs
          la=3 lb=3:     65 shell pairs

Calculating one electron integrals          ... done (  0.2 sec)
Calculating ECP integrals                   ... done (  0.8 sec)
Calculating RI/J V-Matrix + Cholesky decomp.... done (  0.0 sec)
Calculating Nuclear repulsion               ... done (  0.0 sec) ENN=    639.278842327126 Eh

SHARK setup successfully completed in   1.8 seconds

Maximum memory used throughout the entire GTOINT-calculation: 262.4 MB
-------------------------------------------------------------------------------
                                 ORCA SCF
-------------------------------------------------------------------------------

------------
SCF SETTINGS
------------
Hamiltonian:
 Density Functional     Method          .... DFT(GTOs)
 Exchange Functional    Exchange        .... WB97X
 Correlation Functional Correlation     .... WB97X
 Gradients option       PostSCFGGA      .... off
 Hybrid DFT is turned on
   Fraction HF Exchange ScalHFX         ....  0.157706
   Scaling of DF-GGA-X  ScalDFX         ....  0.000000
   Scaling of DF-GGA-C  ScalDFC         ....  1.000000
   Scaling of DF-LDA-C  ScalLDAC        ....  1.000000
   Perturbative correction              ....  0.000000
   Density functional embedding theory  .... OFF
 Long-range corrected/Screened/Range-Separated Hybrid DFT is turned on
   Amount of maximum screened exact exchange              ....  0.842294
   Range separation parameter mu (erf(mu*r12)/r12)        ....  0.300000
 RI-approximation to the Coulomb term is turned on
   Number of AuxJ basis functions       .... 700
   RIJ-COSX (HFX calculated with COS-X)).... on


General Settings:
 Integral files         IntName         .... Coordination_0
 Hartree-Fock type      HFTyp           .... RHF
 Total Charge           Charge          ....    0
 Multiplicity           Mult            ....    1
 Number of Electrons    NEL             ....   84
 Basis Dimension        Dim             ....  542
 Nuclear Repulsion      ENuc            ....    639.2788423271 Eh

Convergence Acceleration:
 DIIS                   CNVDIIS         .... on
   Start iteration      DIISMaxIt       ....     0
   Startup error        DIISStart       ....  0.200000
   # of expansion vecs  DIISMaxEq       ....     5
   Bias factor          DIISBfac        ....   1.050
   Max. coefficient     DIISMaxC        ....  10.000
 Trust-Rad. Augm. Hess. CNVTRAH         .... auto
   Auto Start mean grad. ratio tolernc. ....  1.125000
   Auto Start start iteration           ....    20
   Auto Start num. interpolation iter.  ....    10
   Max. Number of Micro iterations      ....    16
   Max. Number of Macro iterations      .... Maxiter - #DIIS iter
   Number of Davidson start vectors     ....     2
   Converg. threshold I  (grad. norm)   ....   1.000e-05
   Converg. threshold II (energy diff.) ....   1.000e-08
   Grad. Scal. Fac. for Micro threshold ....   0.100
   Minimum threshold for Micro iter.    ....   0.010
   NR start threshold (gradient norm)   ....   0.001
   Initial trust radius                 ....   0.400
   Minimum AH scaling param. (alpha)    ....   1.000
   Maximum AH scaling param. (alpha)    .... 1000.000
   Orbital update algorithm             .... Taylor
   White noise on init. David. guess    .... on
   Maximum white noise                  ....   0.010
   Quad. conv. algorithm                .... NR
 SOSCF                  CNVSOSCF        .... on
   Start iteration      SOSCFMaxIt      ....   150
   Startup grad/error   SOSCFStart      ....  0.001000
 Level Shifting         CNVShift        .... on
   Level shift para.    LevelShift      ....    0.2500
   Turn off err/grad.   ShiftErr        ....    0.0000
 Zerner damping         CNVZerner       .... off
 Static damping         CNVDamp         .... on
   Fraction old density DampFac         ....    0.8500
   Max. Damping (<1)    DampMax         ....    0.9800
   Min. Damping (>=0)   DampMin         ....    0.0000
   Turn off err/grad.   DampErr         ....    0.0300
 Fernandez-Rico         CNVRico         .... off

SCF Procedure:
 Maximum # iterations   MaxIter         .... 200000
 SCF integral mode      SCFMode         .... Direct
   Integral package                     .... SHARK and LIBINT hybrid scheme
 Reset frequency        DirectResetFreq ....    20
 Integral Threshold     Thresh          ....  2.500e-11 Eh
 Primitive CutOff       TCut            ....  2.500e-12 Eh

Convergence Tolerance:
 Convergence Check Mode ConvCheckMode   .... Total+1el-Energy
 Convergence forced     ConvForced      .... 0
 Energy Change          TolE            ....  1.000e-08 Eh
 1-El. energy change                    ....  1.000e-05 Eh
 Orbital Gradient       TolG            ....  1.000e-05
 Orbital Rotation angle TolX            ....  1.000e-05
 DIIS Error             TolErr          ....  5.000e-07


Diagonalization of the overlap matrix:
Smallest eigenvalue                        ... 2.553e-05
Time for diagonalization                   ...    0.056 sec
Threshold for overlap eigenvalues          ... 1.000e-08
Number of eigenvalues below threshold      ... 0
Time for construction of square roots      ...    0.023 sec
Total time needed                          ...    0.080 sec

Time for model grid setup =    0.722 sec

------------------------------
INITIAL GUESS: MODEL POTENTIAL
------------------------------
Loading Hartree-Fock densities                     ... done
  calling /opt/software/orca/5.0.3/orca Coordination_0_atom55.inp > Coordination_0_atom55.out in order to generate an atomic fitting density for atom 0 (Cs with ECP) on-the-fly... 
    atom 0 (Cs), assumed electronic state with S=2: 1s2 2s2 2p6 3s2 3p6 4s2 3d10 4p6 5s2 4d10 5p6 6s1           ... done
Calculating cut-offs                               ... done
Initializing the effective Hamiltonian             ... done
Setting up the integral package (SHARK)            ... done
Starting the Coulomb interaction                   ... done (   1.8 sec)
Reading the grid                                   ... done
Mapping shells                                     ... done
Starting the XC term evaluation                    ... done (   1.8 sec)
  promolecular density results
     # of electrons  =    129.995359880
     EX              =   -247.938261901
     EC              =     -5.452114517
     EX+EC           =   -253.390376418
Transforming the Hamiltonian                       ... done (   0.0 sec)
Diagonalizing the Hamiltonian                      ... done (   0.1 sec)
Back transforming the eigenvectors                 ... done (   0.0 sec)
Now organizing SCF variables                       ... done
                      ------------------
                      INITIAL GUESS DONE (   5.1 sec)
                      ------------------
-------------------
DFT GRID GENERATION
-------------------

General Integration Accuracy     IntAcc      ... 4.388
Radial Grid Type                 RadialGrid  ... OptM3 with GC (2021)
Angular Grid (max. ang.)         AngularGrid ... 4 (Lebedev-302)
Angular grid pruning method      GridPruning ... 4 (adaptive)
Weight generation scheme         WeightScheme... Becke
Basis function cutoff            BFCut       ... 1.0000e-11
Integration weight cutoff        WCut        ... 1.0000e-14
Angular grids for H and He will be reduced by one unit
Partially contracted basis set               ... off
Rotationally invariant grid construction     ... off

Total number of grid points                  ...   114324
Total number of batches                      ...     1800
Average number of points per batch           ...       63
Average number of grid points per atom       ...     4573
Time for grid setup =    2.477 sec

--------------------
COSX GRID GENERATION
--------------------

GRIDX 1
-------
General Integration Accuracy     IntAcc      ... 3.816
Radial Grid Type                 RadialGrid  ... OptM3 with GC (2021)
Angular Grid (max. ang.)         AngularGrid ... 1 (Lebedev-50)
Angular grid pruning method      GridPruning ... 4 (adaptive)
Weight generation scheme         WeightScheme... Becke
Basis function cutoff            BFCut       ... 1.0000e-11
Integration weight cutoff        WCut        ... 1.0000e-14
Angular grids for H and He will be reduced by one unit
Partially contracted basis set               ... on
Rotationally invariant grid construction     ... off

Total number of grid points                  ...    14394
Total number of batches                      ...      237
Average number of points per batch           ...       60
Average number of grid points per atom       ...      576
UseSFitting                                  ... on

GRIDX 2
-------
General Integration Accuracy     IntAcc      ... 4.020
Radial Grid Type                 RadialGrid  ... OptM3 with GC (2021)
Angular Grid (max. ang.)         AngularGrid ... 2 (Lebedev-110)
Angular grid pruning method      GridPruning ... 4 (adaptive)
Weight generation scheme         WeightScheme... Becke
Basis function cutoff            BFCut       ... 1.0000e-11
Integration weight cutoff        WCut        ... 1.0000e-14
Angular grids for H and He will be reduced by one unit
Partially contracted basis set               ... on
Rotationally invariant grid construction     ... off

Total number of grid points                  ...    31255
Total number of batches                      ...      501
Average number of points per batch           ...       62
Average number of grid points per atom       ...     1250
UseSFitting                                  ... on

GRIDX 3
-------
General Integration Accuracy     IntAcc      ... 4.338
Radial Grid Type                 RadialGrid  ... OptM3 with GC (2021)
Angular Grid (max. ang.)         AngularGrid ... 3 (Lebedev-194)
Angular grid pruning method      GridPruning ... 4 (adaptive)
Weight generation scheme         WeightScheme... Becke
Basis function cutoff            BFCut       ... 1.0000e-11
Integration weight cutoff        WCut        ... 1.0000e-14
Angular grids for H and He will be reduced by one unit
Partially contracted basis set               ... on
Rotationally invariant grid construction     ... off

Total number of grid points                  ...    66756
Total number of batches                      ...     1058
Average number of points per batch           ...       63
Average number of grid points per atom       ...     2670
UseSFitting                                  ... on

Time for X-Grid setup             =    4.313 sec


--------------------
CPCM SOLVATION MODEL
--------------------
CPCM parameters:
  Epsilon                                         ...       7.2500
  Refrac                                          ...       1.4070
  Rsolv                                           ...       1.3000
  Surface type                                    ... GAUSSIAN VDW
  Epsilon function type                           ...         CPCM
Radii:
 Radius for Cs used is    7.7781 Bohr (=   4.1160 Ang.)
 Radius for N  used is    3.5149 Bohr (=   1.8600 Ang.)
 Radius for C  used is    3.8550 Bohr (=   2.0400 Ang.)
 Radius for H  used is    2.4944 Bohr (=   1.3200 Ang.)
Calculating surface                               ...        done! (  0.0s)
GEPOL surface points                              ...         1117
GEPOL Volume                                      ...    2718.6658
GEPOL Surface-area                                ...    1078.3668
Calculating surface distance matrix               ...        done! (  0.0s)
Performing Cholesky decomposition & store         ...        done! (  0.0s)
Overall time for CPCM initialization              ...                 0.1s
--------------
SCF ITERATIONS
--------------
ITER       Energy         Delta-E        Max-DP      RMS-DP      [F,P]     Damp
               ***  Starting incremental Fock matrix formation  ***
  0   -425.8811491497   0.000000000000 0.11956825  0.00062296  0.3911635 0.8500
  1   -425.9821988857  -0.101049735983 0.11521938  0.00060433  0.3344149 0.8500
                               ***Turning on DIIS***
  2   -426.0568961063  -0.074697220596 0.10044887  0.00050610  0.2843464 0.8500
  3   -426.1105163967  -0.053620290420 0.08765074  0.00038705  0.2416441 0.8500
  4   -426.1512693415  -0.040752944839 0.07554723  0.00031210  0.2053690 0.8500
  5   -426.1831334019  -0.031864060351 0.06468460  0.00026036  0.1745542 0.8500
  6   -426.2090357692  -0.025902367292 0.05525317  0.00022006  0.1483780 0.8500
  7   -426.2305270645  -0.021491295308 0.04715388  0.00018722  0.1261388 0.8500
  8   -426.2485714182  -0.018044353712 0.04025088  0.00015957  0.1072420 0.8500
  9   -426.2637264516  -0.015155033411 0.03435141  0.00013591  0.0911774 0.8500
 10   -426.2764564124  -0.012729960796 0.02929570  0.00011570  0.0775165 0.8500
 11   -426.2871667379  -0.010710325493 0.02496557  0.00009847  0.0658999 0.8500
 12   -426.2961952076  -0.009028469702 0.02126417  0.00008381  0.0560226 0.8500
 13   -426.3038180189  -0.007622811292 0.01810722  0.00007133  0.0476253 0.8500
 14   -426.3102613050  -0.006443286149 0.01541764  0.00006070  0.0404867 0.8500
 15   -426.3157125143  -0.005451209237 0.01312683  0.00005165  0.0344182 0.8500
 16   -426.3203280931  -0.004615578841 0.07450450  0.00029311  0.0292594 0.0000
                      *** Initiating the SOSCF procedure ***
                           *** Shutting down DIIS ***
                      *** Re-Reading the Fockian *** 
                      *** Removing any level shift *** 
ITER      Energy       Delta-E        Grad      Rot      Max-DP    RMS-DP
 17   -426.34620695  -0.0258788582  0.000153  0.000153  0.000553  0.000008
               *** Restarting incremental Fock matrix formation ***
 18   -426.34620304   0.0000039087  0.000144  0.000464  0.002644  0.000035
 19   -426.34620455  -0.0000015077  0.000068  0.000512  0.001915  0.000021
 20   -426.34620507  -0.0000005214  0.000039  0.000175  0.000526  0.000009
 21   -426.34620519  -0.0000001155  0.000017  0.000045  0.000328  0.000004
 22   -426.34620522  -0.0000000289  0.000005  0.000010  0.000061  0.000001
 23   -426.34620523  -0.0000000100  0.000004  0.000016  0.000022  0.000000
                  ***Gradient check signals convergence***
              ***Rediagonalizing the Fockian in SOSCF/NRSCF***

               *****************************************************
               *                     SUCCESS                       *
               *           SCF CONVERGED AFTER  24 CYCLES          *
               *****************************************************

Old exchange energy                            =    -20.621555437 Eh
New exchange energy                            =    -20.621559908 Eh
Exchange energy change after final integration =     -0.000004471 Eh
Total energy after final integration           =   -426.346209697 Eh
Final COS-X integration done in                =   192.098 sec

----------------
TOTAL SCF ENERGY
----------------

Total Energy       :         -426.34620970 Eh          -11601.47017 eV

Components:
Nuclear Repulsion  :          639.27884233 Eh           17395.66168 eV
Electronic Energy  :        -1065.62505202 Eh          -28997.13185 eV
One Electron Energy:        -1852.69567210 Eh          -50414.41226 eV
Two Electron Energy:          787.07062008 Eh           21417.28041 eV
Max COSX asymmetry :            0.00000676 Eh               0.00018 eV
CPCM Dielectric    :           -0.01243292 Eh              -0.33832 eV

Virial components:
Potential Energy   :         -836.45848314 Eh          -22761.19248 eV
Kinetic Energy     :          410.11227345 Eh           11159.72231 eV
Virial Ratio       :            2.03958413


DFT components:
N(Alpha)           :       41.999907110374 electrons
N(Beta)            :       41.999907110374 electrons
N(Total)           :       83.999814220748 electrons
E(XC)              :      -43.729247029633 Eh       
DFET-embed. en.    :        0.000000000000 Eh       
CPCM Solvation Model Properties:
Surface-charge          :           -0.02139225
Charge-correction       :           -0.00031695 Eh              -0.00862 eV
Free-energy (cav+disp)  :  This term is not implemented in the current solvation scheme

---------------
SCF CONVERGENCE
---------------

  Last Energy change         ...    1.7815e-10  Tolerance :   1.0000e-08
  Last MAX-Density change    ...    1.7764e-15  Tolerance :   1.0000e-07
  Last RMS-Density change    ...    1.2139e-17  Tolerance :   5.0000e-09
  Last Orbital Gradient      ...    6.4089e-07  Tolerance :   1.0000e-05
  Last Orbital Rotation      ...    3.5416e-06  Tolerance :   1.0000e-05

             **** THE GBW FILE WAS UPDATED (Coordination_0.gbw) ****
             **** DENSITY Coordination_0.scfp WAS UPDATED ****
             **** ENERGY FILE WAS UPDATED (Coordination_0.en.tmp) ****
             **** THE GBW FILE WAS UPDATED (Coordination_0.gbw) ****
             **** DENSITY Coordination_0.scfp WAS UPDATED ****
----------------
ORBITAL ENERGIES
----------------

  NO   OCC          E(Eh)            E(eV) 
   0   2.0000     -14.331277      -389.9739 
   1   2.0000     -10.264007      -279.2978 
   2   2.0000     -10.262838      -279.2660 
   3   2.0000     -10.245820      -278.8029 
   4   2.0000     -10.243485      -278.7394 
   5   2.0000     -10.226857      -278.2869 
   6   2.0000     -10.223634      -278.1992 
   7   2.0000     -10.222918      -278.1797 
   8   2.0000     -10.221446      -278.1397 
   9   2.0000     -10.206342      -277.7287 
  10   2.0000      -1.168229       -31.7891 
  11   2.0000      -1.022178       -27.8149 
  12   2.0000      -0.933770       -25.4092 
  13   2.0000      -0.895928       -24.3794 
  14   2.0000      -0.846428       -23.0325 
  15   2.0000      -0.798287       -21.7225 
  16   2.0000      -0.796141       -21.6641 
  17   2.0000      -0.739580       -20.1250 
  18   2.0000      -0.697079       -18.9685 
  19   2.0000      -0.651535       -17.7292 
  20   2.0000      -0.629207       -17.1216 
  21   2.0000      -0.620769       -16.8920 
  22   2.0000      -0.618599       -16.8329 
  23   2.0000      -0.606989       -16.5170 
  24   2.0000      -0.564426       -15.3588 
  25   2.0000      -0.552192       -15.0259 
  26   2.0000      -0.549414       -14.9503 
  27   2.0000      -0.529098       -14.3975 
  28   2.0000      -0.516742       -14.0613 
  29   2.0000      -0.500244       -13.6123 
  30   2.0000      -0.485875       -13.2213 
  31   2.0000      -0.472217       -12.8497 
  32   2.0000      -0.454920       -12.3790 
  33   2.0000      -0.451691       -12.2911 
  34   2.0000      -0.438090       -11.9210 
  35   2.0000      -0.430342       -11.7102 
  36   2.0000      -0.411800       -11.2057 
  37   2.0000      -0.405302       -11.0288 
  38   2.0000      -0.395531       -10.7629 
  39   2.0000      -0.366593        -9.9755 
  40   2.0000      -0.315153        -8.5757 
  41   2.0000      -0.238599        -6.4926 
  42   0.0000       0.021556         0.5866 
  43   0.0000       0.047934         1.3043 
  44   0.0000       0.048848         1.3292 
  45   0.0000       0.052555         1.4301 
  46   0.0000       0.057438         1.5630 
  47   0.0000       0.059733         1.6254 
  48   0.0000       0.066300         1.8041 
  49   0.0000       0.068178         1.8552 
  50   0.0000       0.071227         1.9382 
  51   0.0000       0.075080         2.0430 
  52   0.0000       0.084667         2.3039 
  53   0.0000       0.126721         3.4483 
  54   0.0000       0.138765         3.7760 
  55   0.0000       0.154357         4.2003 
  56   0.0000       0.156973         4.2715 
  57   0.0000       0.159393         4.3373 
  58   0.0000       0.162013         4.4086 
  59   0.0000       0.175985         4.7888 
  60   0.0000       0.181344         4.9346 
  61   0.0000       0.188833         5.1384 
  62   0.0000       0.192715         5.2441 
  63   0.0000       0.201047         5.4708 
  64   0.0000       0.208227         5.6661 
  65   0.0000       0.212285         5.7766 
  66   0.0000       0.223236         6.0746 
  67   0.0000       0.232009         6.3133 
  68   0.0000       0.234045         6.3687 
  69   0.0000       0.240785         6.5521 
  70   0.0000       0.249729         6.7955 
  71   0.0000       0.254775         6.9328 
  72   0.0000       0.255146         6.9429 
  73   0.0000       0.259201         7.0532 
  74   0.0000       0.261860         7.1256 
  75   0.0000       0.267698         7.2844 
  76   0.0000       0.280015         7.6196 
  77   0.0000       0.294784         8.0215 
  78   0.0000       0.296320         8.0633 
  79   0.0000       0.309440         8.4203 
  80   0.0000       0.330594         8.9959 
  81   0.0000       0.333163         9.0658 
  82   0.0000       0.341538         9.2937 
  83   0.0000       0.349632         9.5140 
  84   0.0000       0.351197         9.5566 
  85   0.0000       0.360519         9.8102 
  86   0.0000       0.368287        10.0216 
  87   0.0000       0.380696        10.3593 
  88   0.0000       0.389644        10.6028 
  89   0.0000       0.399766        10.8782 
  90   0.0000       0.405880        11.0446 
  91   0.0000       0.413602        11.2547 
  92   0.0000       0.418527        11.3887 
  93   0.0000       0.425173        11.5696 
  94   0.0000       0.427843        11.6422 
  95   0.0000       0.434951        11.8356 
  96   0.0000       0.443906        12.0793 
  97   0.0000       0.445964        12.1353 
  98   0.0000       0.459704        12.5092 
  99   0.0000       0.464771        12.6471 
 100   0.0000       0.473412        12.8822 
 101   0.0000       0.478037        13.0081 
 102   0.0000       0.483453        13.1554 
 103   0.0000       0.490323        13.3424 
 104   0.0000       0.501620        13.6498 
 105   0.0000       0.508277        13.8309 
 106   0.0000       0.512438        13.9441 
 107   0.0000       0.525468        14.2987 
 108   0.0000       0.529430        14.4065 
 109   0.0000       0.538122        14.6430 
 110   0.0000       0.543239        14.7823 
 111   0.0000       0.549769        14.9600 
 112   0.0000       0.553884        15.0719 
 113   0.0000       0.555716        15.1218 
 114   0.0000       0.559081        15.2134 
 115   0.0000       0.570313        15.5190 
 116   0.0000       0.571080        15.5399 
 117   0.0000       0.574925        15.6445 
 118   0.0000       0.581534        15.8244 
 119   0.0000       0.584412        15.9027 
 120   0.0000       0.592566        16.1245 
 121   0.0000       0.599978        16.3262 
 122   0.0000       0.604640        16.4531 
 123   0.0000       0.620667        16.8892 
 124   0.0000       0.625206        17.0127 
 125   0.0000       0.632510        17.2115 
 126   0.0000       0.645998        17.5785 
 127   0.0000       0.650776        17.7085 
 128   0.0000       0.665217        18.1015 
 129   0.0000       0.677148        18.4261 
 130   0.0000       0.687304        18.7025 
 131   0.0000       0.687831        18.7168 
 132   0.0000       0.700676        19.0664 
 133   0.0000       0.703629        19.1467 
 134   0.0000       0.727460        19.7952 
 135   0.0000       0.734843        19.9961 
 136   0.0000       0.765744        20.8370 
 137   0.0000       0.773189        21.0395 
 138   0.0000       0.778024        21.1711 
 139   0.0000       0.792101        21.5542 
 140   0.0000       0.805677        21.9236 
 141   0.0000       0.819815        22.3083 
 142   0.0000       0.822870        22.3914 
 143   0.0000       0.840813        22.8797 
 144   0.0000       0.856247        23.2997 
 145   0.0000       0.859634        23.3918 
 146   0.0000       0.885369        24.0921 
 147   0.0000       0.891111        24.2484 
 148   0.0000       0.905750        24.6467 
 149   0.0000       0.921943        25.0873 
 150   0.0000       0.924519        25.1574 
 151   0.0000       0.930860        25.3300 
 152   0.0000       0.942674        25.6515 
 153   0.0000       0.964176        26.2366 
 154   0.0000       0.976762        26.5790 
 155   0.0000       0.983383        26.7592 
 156   0.0000       0.990588        26.9553 
 157   0.0000       0.997009        27.1300 
 158   0.0000       1.011424        27.5222 
 159   0.0000       1.036562        28.2063 
 160   0.0000       1.047297        28.4984 
 161   0.0000       1.062910        28.9232 
 162   0.0000       1.078017        29.3343 
 163   0.0000       1.087501        29.5924 
 164   0.0000       1.092017        29.7153 
 165   0.0000       1.102819        30.0092 
 166   0.0000       1.105658        30.0865 
 167   0.0000       1.120289        30.4846 
 168   0.0000       1.127257        30.6742 
 169   0.0000       1.136171        30.9168 
 170   0.0000       1.139019        30.9943 
 171   0.0000       1.154740        31.4221 
 172   0.0000       1.164599        31.6904 
 173   0.0000       1.167137        31.7594 
 174   0.0000       1.173261        31.9261 
 175   0.0000       1.181863        32.1601 
 176   0.0000       1.193651        32.4809 
 177   0.0000       1.199037        32.6275 
 178   0.0000       1.200419        32.6651 
 179   0.0000       1.209384        32.9090 
 180   0.0000       1.215136        33.0655 
 181   0.0000       1.228757        33.4362 
 182   0.0000       1.241431        33.7811 
 183   0.0000       1.254140        34.1269 
 184   0.0000       1.262180        34.3457 
 185   0.0000       1.267855        34.5001 
 186   0.0000       1.269135        34.5349 
 187   0.0000       1.281204        34.8633 
 188   0.0000       1.291992        35.1569 
 189   0.0000       1.294791        35.2331 
 190   0.0000       1.315898        35.8074 
 191   0.0000       1.316965        35.8364 
 192   0.0000       1.331451        36.2306 
 193   0.0000       1.353199        36.8224 
 194   0.0000       1.362378        37.0722 
 195   0.0000       1.366484        37.1839 
 196   0.0000       1.372633        37.3512 
 197   0.0000       1.384137        37.6643 
 198   0.0000       1.392190        37.8834 
 199   0.0000       1.403558        38.1928 
 200   0.0000       1.421247        38.6741 
 201   0.0000       1.428447        38.8700 
 202   0.0000       1.433284        39.0016 
 203   0.0000       1.438365        39.1399 
 204   0.0000       1.448444        39.4142 
 205   0.0000       1.455604        39.6090 
 206   0.0000       1.470658        40.0186 
 207   0.0000       1.479514        40.2596 
 208   0.0000       1.496829        40.7308 
 209   0.0000       1.498771        40.7836 
 210   0.0000       1.506424        40.9919 
 211   0.0000       1.514423        41.2095 
 212   0.0000       1.522224        41.4218 
 213   0.0000       1.532267        41.6951 
 214   0.0000       1.559203        42.4281 
 215   0.0000       1.569809        42.7167 
 216   0.0000       1.572454        42.7886 
 217   0.0000       1.592843        43.3435 
 218   0.0000       1.602797        43.6143 
 219   0.0000       1.606366        43.7114 
 220   0.0000       1.627836        44.2957 
 221   0.0000       1.637059        44.5467 
 222   0.0000       1.644453        44.7478 
 223   0.0000       1.648525        44.8587 
 224   0.0000       1.654114        45.0107 
 225   0.0000       1.662285        45.2331 
 226   0.0000       1.672581        45.5132 
 227   0.0000       1.682361        45.7794 
 228   0.0000       1.687320        45.9143 
 229   0.0000       1.697125        46.1811 
 230   0.0000       1.706968        46.4489 
 231   0.0000       1.725087        46.9420 
 232   0.0000       1.742221        47.4082 
 233   0.0000       1.749156        47.5970 
 234   0.0000       1.753287        47.7094 
 235   0.0000       1.765409        48.0392 
 236   0.0000       1.779084        48.4114 
 237   0.0000       1.790400        48.7193 
 238   0.0000       1.801797        49.0294 
 239   0.0000       1.814485        49.3746 
 240   0.0000       1.835985        49.9597 
 241   0.0000       1.847908        50.2841 
 242   0.0000       1.865917        50.7742 
 243   0.0000       1.885517        51.3075 
 244   0.0000       1.895694        51.5844 
 245   0.0000       1.907814        51.9143 
 246   0.0000       1.922808        52.3223 
 247   0.0000       1.957350        53.2622 
 248   0.0000       1.972136        53.6645 
 249   0.0000       1.988080        54.0984 
 250   0.0000       1.996452        54.3262 
 251   0.0000       2.020740        54.9871 
 252   0.0000       2.054509        55.9060 
 253   0.0000       2.087010        56.7904 
 254   0.0000       2.097930        57.0876 
 255   0.0000       2.117705        57.6257 
 256   0.0000       2.137075        58.1528 
 257   0.0000       2.149988        58.5041 
 258   0.0000       2.165091        58.9151 
 259   0.0000       2.204182        59.9788 
 260   0.0000       2.227804        60.6216 
 261   0.0000       2.231453        60.7209 
 262   0.0000       2.238342        60.9084 
 263   0.0000       2.278257        61.9945 
 264   0.0000       2.292695        62.3874 
 265   0.0000       2.305340        62.7315 
 266   0.0000       2.325755        63.2870 
 267   0.0000       2.348068        63.8942 
 268   0.0000       2.354619        64.0725 
 269   0.0000       2.362670        64.2915 
 270   0.0000       2.396736        65.2185 
 271   0.0000       2.416418        65.7541 
 272   0.0000       2.481282        67.5191 
 273   0.0000       2.528779        68.8116 
 274   0.0000       2.535432        68.9926 
 275   0.0000       2.561303        69.6966 
 276   0.0000       2.564331        69.7790 
 277   0.0000       2.586834        70.3913 
 278   0.0000       2.618915        71.2643 
 279   0.0000       2.636527        71.7436 
 280   0.0000       2.655536        72.2608 
 281   0.0000       2.660335        72.3914 
 282   0.0000       2.687789        73.1385 
 283   0.0000       2.711382        73.7805 
 284   0.0000       2.737752        74.4980 
 285   0.0000       2.742575        74.6293 
 286   0.0000       2.755384        74.9778 
 287   0.0000       2.764149        75.2163 
 288   0.0000       2.791184        75.9520 
 289   0.0000       2.812521        76.5326 
 290   0.0000       2.832701        77.0817 
 291   0.0000       2.854397        77.6721 
 292   0.0000       2.867290        78.0229 
 293   0.0000       2.870556        78.1118 
 294   0.0000       2.878847        78.3374 
 295   0.0000       2.884056        78.4792 
 296   0.0000       2.887179        78.5641 
 297   0.0000       2.896798        78.8259 
 298   0.0000       2.911630        79.2295 
 299   0.0000       2.926575        79.6361 
 300   0.0000       2.932121        79.7871 
 301   0.0000       2.945719        80.1571 
 302   0.0000       2.961274        80.5804 
 303   0.0000       2.963952        80.6532 
 304   0.0000       2.971747        80.8654 
 305   0.0000       2.990907        81.3867 
 306   0.0000       3.008278        81.8594 
 307   0.0000       3.032593        82.5210 
 308   0.0000       3.037275        82.6485 
 309   0.0000       3.041555        82.7649 
 310   0.0000       3.072765        83.6142 
 311   0.0000       3.075974        83.7015 
 312   0.0000       3.105212        84.4971 
 313   0.0000       3.114518        84.7504 
 314   0.0000       3.121778        84.9479 
 315   0.0000       3.133733        85.2732 
 316   0.0000       3.140208        85.4494 
 317   0.0000       3.152983        85.7970 
 318   0.0000       3.157275        85.9138 
 319   0.0000       3.163506        86.0834 
 320   0.0000       3.176708        86.4426 
 321   0.0000       3.189524        86.7914 
 322   0.0000       3.199388        87.0598 
 323   0.0000       3.209060        87.3230 
 324   0.0000       3.217078        87.5411 
 325   0.0000       3.220012        87.6210 
 326   0.0000       3.234645        88.0192 
 327   0.0000       3.240366        88.1748 
 328   0.0000       3.264762        88.8387 
 329   0.0000       3.275449        89.1295 
 330   0.0000       3.289902        89.5228 
 331   0.0000       3.296673        89.7070 
 332   0.0000       3.304446        89.9186 
 333   0.0000       3.317067        90.2620 
 334   0.0000       3.324876        90.4745 
 335   0.0000       3.332362        90.6782 
 336   0.0000       3.346907        91.0740 
 337   0.0000       3.373992        91.8110 
 338   0.0000       3.382022        92.0295 
 339   0.0000       3.387559        92.1802 
 340   0.0000       3.405872        92.6785 
 341   0.0000       3.409040        92.7647 
 342   0.0000       3.425272        93.2064 
 343   0.0000       3.431049        93.3636 
 344   0.0000       3.441014        93.6347 
 345   0.0000       3.445166        93.7477 
 346   0.0000       3.452035        93.9346 
 347   0.0000       3.470864        94.4470 
 348   0.0000       3.479858        94.6917 
 349   0.0000       3.495643        95.1213 
 350   0.0000       3.503660        95.3394 
 351   0.0000       3.506851        95.4263 
 352   0.0000       3.513544        95.6084 
[...]
     52      -0.006484  -0.020831   0.209388   0.033329   0.028853   0.019751
     53       0.022151   0.070926  -0.642678  -0.098471  -0.064966  -0.050903
     54      -0.004723  -0.020968   0.159388   0.047747   0.302677   0.111201
     55       0.008003   0.030272  -0.231491  -0.073278  -0.475896  -0.177421
     56       0.007478   0.028676  -0.217610  -0.072571  -0.480487  -0.176493
     57      -0.026555  -0.012702  -0.015941  -0.013993  -0.129040   0.377650
     58       0.022840   0.013537   0.021970   0.020653   0.183768  -0.529741
     59       0.050749   0.020974   0.024755   0.022188   0.191543  -0.553525
     60      -0.162142  -0.056083  -0.008782  -0.003261   0.025564  -0.074957
     61       0.189498   0.064009   0.007277   0.001531  -0.033828   0.100838
     62      -0.638330  -0.215600  -0.028745  -0.006041   0.094955  -0.281393
     63       0.238839   0.082887   0.021433   0.009860   0.032248  -0.093557
     64       0.589254   0.200447   0.050371   0.025880   0.075382  -0.219809
     65      -0.083298  -0.028270  -0.008730  -0.004185  -0.017207   0.047367
     66      -0.054562   0.199393   0.138142  -0.833723   0.070761  -0.001400
     67       0.004153  -0.008461   0.001984  -0.015724  -0.000126  -0.000192
     68      -0.007754   0.020138   0.007025  -0.030869   0.001831   0.000345
     69      -0.068748   0.198530   0.026450  -0.047268   0.005499   0.003890
     70      -0.206473   0.608151   0.091259  -0.189723   0.020369   0.009331
     71       0.033111  -0.094673  -0.016189   0.039797  -0.003307  -0.001668
     72       0.069087  -0.190328   0.000081  -0.119474   0.009351  -0.001356
     73      -0.061153   0.166367  -0.005201   0.131833  -0.011121   0.001276
     74       0.213806  -0.595743   0.006515  -0.433365   0.035503  -0.008318
                 72         73         74    
      0       0.000013   0.000009   0.000004
      1      -0.000001  -0.000011   0.000005
      2       0.000004  -0.000003   0.000009
      3       0.000197   0.000031  -0.000184
      4       0.000449  -0.000011  -0.000560
      5       0.000156  -0.000006  -0.000261
      6       0.000323  -0.002738  -0.000451
      7       0.000618  -0.001364  -0.000198
      8       0.000126  -0.000626  -0.000264
      9      -0.015289   0.034209   0.001314
     10       0.021781  -0.065101  -0.004357
     11       0.010775  -0.034029  -0.002376
     12      -0.002439   0.013702   0.001855
     13      -0.004745   0.017099   0.002521
     14       0.000247   0.000882  -0.000158
     15      -0.000166   0.000265   0.000021
     16       0.000023  -0.000036  -0.000002
     17       0.000069  -0.000236  -0.000080
     18       0.078095   0.033052   0.012637
     19      -0.006913  -0.000020  -0.002965
     20       0.008076   0.005348  -0.000076
     21       0.168703  -0.427236  -0.022021
     22      -0.283376   0.727771   0.040254
     23      -0.146481   0.377089   0.021446
     24      -0.004490  -0.005618   0.042445
     25      -0.004743  -0.004415   0.060866
     26      -0.003503  -0.003153   0.044171
     27      -0.000728   0.000602  -0.006467
     28      -0.000935   0.000475   0.003447
     29      -0.000623   0.000381   0.003833
     30       0.051910   0.048787  -0.479881
     31       0.070848   0.066355  -0.692553
     32       0.051458   0.047650  -0.509722
     33      -0.911648  -0.348853  -0.124585
     34       0.091154   0.031940   0.015952
     35      -0.090559  -0.036614  -0.010700
     36      -0.001481   0.001683   0.036163
     37       0.002982  -0.001934  -0.036105
     38       0.002887  -0.002246  -0.038108
     39      -0.000494  -0.000012  -0.000144
     40       0.000047   0.000027  -0.000032
     41      -0.000417  -0.000482  -0.000228
     42      -0.005815   0.005546   0.000047
     43      -0.000733   0.000775   0.000052
     44      -0.001708   0.000914  -0.000064
     45       0.000029  -0.000090   0.000033
     46      -0.000073   0.000071  -0.000042
     47      -0.000068  -0.000305  -0.000121
     48       0.005905   0.000034   0.002202
     49       0.000342   0.000041   0.000132
     50       0.000598  -0.000415  -0.000057
     51       0.000900   0.001293   0.000592
     52      -0.001309  -0.001947  -0.000599
     53       0.004261   0.005278   0.002172
     54      -0.000335  -0.001038  -0.000810
     55       0.000476   0.001636   0.001121
     56       0.000312   0.001258   0.000880
     57      -0.000392  -0.000439  -0.000589
     58       0.000562   0.000468   0.000821
     59       0.000561   0.000308   0.000810
     60      -0.000012   0.001902   0.000428
     61      -0.000088  -0.001644  -0.000348
     62       0.000090   0.005207   0.001266
     63       0.000265  -0.000221   0.000025
     64       0.000567  -0.000238   0.000035
     65      -0.000138  -0.000029  -0.000048
     66       0.060966  -0.061158  -0.000598
     67       0.001165  -0.001204  -0.000018
     68       0.002516  -0.003000  -0.000141
     69       0.003445  -0.002578  -0.000077
     70       0.014358  -0.012315  -0.000300
     71      -0.002958   0.002578   0.000052
     72       0.006564  -0.004620   0.000283
     73      -0.007122   0.004777  -0.000188
     74       0.022921  -0.013895   0.000923


-----------
IR SPECTRUM
-----------

 Mode   freq       eps      Int      T**2         TX        TY        TZ
       cm**-1   L/(mol*cm) km/mol    a.u.
----------------------------------------------------------------------------
  6:     43.42   0.001377    6.96  0.009896  (-0.048705 -0.048503 -0.071911)
  7:     70.48   0.000350    1.77  0.001549  ( 0.036153 -0.011144 -0.010842)
  8:    100.88   0.001023    5.17  0.003166  ( 0.040485 -0.034326 -0.018668)
  9:    121.18   0.004484   22.66  0.011548  (-0.005747 -0.080059  0.071453)
 10:    146.11   0.001060    5.36  0.002265  (-0.003063  0.021682 -0.042253)
 11:    222.57   0.000089    0.45  0.000125  (-0.007914  0.000786  0.007848)
 12:    233.14   0.001241    6.27  0.001661  (-0.014943 -0.008531  0.036948)
 13:    259.89   0.000230    1.16  0.000277  (-0.005249  0.015656 -0.002011)
 14:    281.20   0.000203    1.03  0.000225  ( 0.003855  0.008593 -0.011691)
 15:    295.68   0.000307    1.55  0.000324  (-0.008211  0.013999 -0.007798)
 16:    331.15   0.000664    3.35  0.000626  (-0.021385  0.009114  0.009232)
 17:    345.19   0.000792    4.00  0.000716  ( 0.005556 -0.007927  0.024952)
 18:    396.12   0.000139    0.70  0.000110  ( 0.000636  0.003718 -0.009775)
 19:    421.31   0.000115    0.58  0.000085  ( 0.004642 -0.007324  0.003206)
 20:    462.81   0.006248   31.57  0.004213  ( 0.022902  0.032843 -0.051082)
 21:    509.68   0.003558   17.98  0.002178  (-0.022716 -0.007530  0.040072)
 22:    573.54   0.017265   87.25  0.009394  ( 0.001509  0.074620 -0.061832)
 23:    609.48   0.006558   33.14  0.003358  ( 0.036222  0.027646 -0.035795)
 24:    650.00   0.001783    9.01  0.000856  ( 0.004857 -0.024026  0.015968)
 25:    689.12   0.005023   25.38  0.002275  (-0.000233  0.034230 -0.033209)
 26:    747.03   0.007227   36.52  0.003019  ( 0.009618  0.029259 -0.045503)
 27:    803.10   0.003253   16.44  0.001264  (-0.008837 -0.027962  0.020096)
 28:    864.49   0.002030   10.26  0.000733  (-0.012579  0.010680 -0.021459)
 29:    943.56   0.004502   22.75  0.001489  (-0.002698 -0.002144  0.038434)
 30:    950.93   0.000292    1.48  0.000096  (-0.009519  0.002149  0.000839)
 31:    959.56   0.001356    6.85  0.000441  (-0.007883 -0.008919  0.017297)
 32:    962.88   0.000829    4.19  0.000269  (-0.005373 -0.005478  0.014489)
 33:    992.23   0.002775   14.02  0.000873  ( 0.028523 -0.006425  0.004236)
 34:   1005.73   0.000191    0.96  0.000059  (-0.001573 -0.002856  0.006964)
 35:   1013.05   0.000546    2.76  0.000168  ( 0.010369  0.007773 -0.000350)
 36:   1018.56   0.008891   44.93  0.002724  (-0.018123 -0.037764 -0.031136)
 37:   1033.54   0.003590   18.14  0.001084  ( 0.004069 -0.017555  0.027552)
 38:   1057.00   0.000471    2.38  0.000139  ( 0.011200  0.000795  0.003594)
 39:   1066.48   0.000494    2.50  0.000145  (-0.009376 -0.006425 -0.003932)
 40:   1128.17   0.006690   33.81  0.001850  (-0.023797  0.023473  0.027076)
 41:   1177.54   0.001185    5.99  0.000314  (-0.010176 -0.014511 -0.000027)
 42:   1239.63   0.003508   17.73  0.000883  (-0.013503 -0.003071 -0.026295)
 43:   1259.81   0.000498    2.52  0.000123  ( 0.004389 -0.005807 -0.008385)
 44:   1273.77   0.000189    0.96  0.000046  ( 0.005716  0.001360  0.003445)
 45:   1320.67   0.031966  161.54  0.007553  (-0.086471  0.007601 -0.004269)
 46:   1359.31   0.006228   31.47  0.001430  (-0.032157 -0.010333 -0.016998)
 47:   1375.69   0.002046   10.34  0.000464  (-0.004973  0.012208  0.017039)
 48:   1391.64   0.005849   29.56  0.001312  (-0.031961  0.013647  0.010187)
 49:   1400.42   0.002145   10.84  0.000478  (-0.009962 -0.018957  0.004408)
 50:   1414.78   0.006456   32.63  0.001424  (-0.004541 -0.004234 -0.037223)
 51:   1416.06   0.003993   20.18  0.000880  ( 0.010933  0.027414  0.002992)
 52:   1472.53   0.000289    1.46  0.000061  ( 0.007453 -0.000897 -0.002223)
 53:   1475.20   0.030217  152.71  0.006392  (-0.065577  0.038577  0.024567)
 54:   1480.66   0.007536   38.08  0.001588  ( 0.035771 -0.013687 -0.011019)
 55:   1482.11   0.002831   14.31  0.000596  ( 0.019209 -0.012706 -0.008098)
 56:   1490.13   0.001057    5.34  0.000221  (-0.008636  0.010518  0.006021)
 57:   1495.50   0.002314   11.69  0.000483  ( 0.020611  0.007459  0.001523)
 58:   1506.54   0.004694   23.72  0.000972  ( 0.001167 -0.011245  0.029061)
 59:   1548.69   0.039139  197.79  0.007886  (-0.085730 -0.013078 -0.019125)
 60:   1668.35   0.041980  212.15  0.007852  ( 0.040556  0.059214  0.051974)
 61:   2933.14   0.035213  177.95  0.003746  (-0.027186 -0.054050 -0.009270)
 62:   3042.52   0.007565   38.23  0.000776  ( 0.023602 -0.012763 -0.007478)
 63:   3044.93   0.017302   87.43  0.001773  ( 0.021833  0.033285  0.013733)
 64:   3052.66   0.009096   45.97  0.000930  (-0.004604  0.010373 -0.028302)
 65:   3078.13   0.018231   92.13  0.001848  ( 0.016895 -0.028718 -0.027168)
 66:   3110.58   0.005096   25.76  0.000511  (-0.000020 -0.017660  0.014121)
 67:   3115.11   0.018404   93.01  0.001844  (-0.007775 -0.033400  0.025839)
 68:   3121.55   0.009806   49.55  0.000980  ( 0.013012 -0.004638  0.028098)
 69:   3129.52   0.011830   59.78  0.001180  ( 0.028596  0.004941  0.018371)
 70:   3139.02   0.004898   24.75  0.000487  (-0.021184  0.003896  0.004798)
 71:   3142.14   0.010875   54.96  0.001080  (-0.009681  0.020441  0.023843)
 72:   3152.35   0.004100   20.72  0.000406  ( 0.020052  0.000776  0.001791)
 73:   3185.20   0.007097   35.86  0.000695  ( 0.018676 -0.016925 -0.007748)
 74:   3226.55   0.003696   18.68  0.000357  ( 0.007894  0.014174  0.009709)

* The epsilon (eps) is given for a Dirac delta lineshape.
** The dipole moment derivative (T) already includes vibrational overlap.

The first frequency considered to be a vibration is 6
The total number of vibrations considered is 69


--------------------------
THERMOCHEMISTRY AT 298.15K
--------------------------

Temperature         ... 298.15 K
Pressure            ... 1.00 atm
Total Mass          ... 269.12 AMU

Throughout the following assumptions are being made:
  (1) The electronic state is orbitally nondegenerate
  (2) There are no thermally accessible electronically excited states
  (3) Hindered rotations indicated by low frequency modes are not
      treated as such but are treated as vibrations and this may
      cause some error
  (4) All equations used are the standard statistical mechanics
      equations for an ideal gas
  (5) All vibrations are strictly harmonic

freq.      43.42  E(vib)   ...       0.53 
freq.      70.48  E(vib)   ...       0.50 
freq.     100.88  E(vib)   ...       0.46 
freq.     121.18  E(vib)   ...       0.44 
freq.     146.11  E(vib)   ...       0.41 
freq.     222.57  E(vib)   ...       0.33 
freq.     233.14  E(vib)   ...       0.32 
freq.     259.89  E(vib)   ...       0.30 
freq.     281.20  E(vib)   ...       0.28 
freq.     295.68  E(vib)   ...       0.27 
freq.     331.15  E(vib)   ...       0.24 
freq.     345.19  E(vib)   ...       0.23 
freq.     396.12  E(vib)   ...       0.20 
freq.     421.31  E(vib)   ...       0.18 
freq.     462.81  E(vib)   ...       0.16 
freq.     509.68  E(vib)   ...       0.14 
freq.     573.54  E(vib)   ...       0.11 
freq.     609.48  E(vib)   ...       0.10 
freq.     650.00  E(vib)   ...       0.08 
freq.     689.12  E(vib)   ...       0.07 
freq.     747.03  E(vib)   ...       0.06 
freq.     803.10  E(vib)   ...       0.05 
freq.     864.49  E(vib)   ...       0.04 
freq.     943.56  E(vib)   ...       0.03 
freq.     950.93  E(vib)   ...       0.03 
freq.     959.56  E(vib)   ...       0.03 
freq.     962.88  E(vib)   ...       0.03 
freq.     992.23  E(vib)   ...       0.02 
freq.    1005.73  E(vib)   ...       0.02 
freq.    1013.05  E(vib)   ...       0.02 
freq.    1018.56  E(vib)   ...       0.02 
freq.    1033.54  E(vib)   ...       0.02 
freq.    1057.00  E(vib)   ...       0.02 
freq.    1066.48  E(vib)   ...       0.02 
freq.    1128.17  E(vib)   ...       0.01 
freq.    1177.54  E(vib)   ...       0.01 
freq.    1239.63  E(vib)   ...       0.01 
freq.    1259.81  E(vib)   ...       0.01 
freq.    1273.77  E(vib)   ...       0.01 
freq.    1320.67  E(vib)   ...       0.01 
freq.    1359.31  E(vib)   ...       0.01 
freq.    1375.69  E(vib)   ...       0.01 
freq.    1391.64  E(vib)   ...       0.00 
freq.    1400.42  E(vib)   ...       0.00 
freq.    1414.78  E(vib)   ...       0.00 
freq.    1416.06  E(vib)   ...       0.00 
freq.    1472.53  E(vib)   ...       0.00 
freq.    1475.20  E(vib)   ...       0.00 
freq.    1480.66  E(vib)   ...       0.00 
freq.    1482.11  E(vib)   ...       0.00 
freq.    1490.13  E(vib)   ...       0.00 
freq.    1495.50  E(vib)   ...       0.00 
freq.    1506.54  E(vib)   ...       0.00 
freq.    1548.69  E(vib)   ...       0.00 
freq.    1668.35  E(vib)   ...       0.00 
freq.    2933.14  E(vib)   ...       0.00 
freq.    3042.52  E(vib)   ...       0.00 
freq.    3044.93  E(vib)   ...       0.00 
freq.    3052.66  E(vib)   ...       0.00 
freq.    3078.13  E(vib)   ...       0.00 
freq.    3110.58  E(vib)   ...       0.00 
freq.    3115.11  E(vib)   ...       0.00 
freq.    3121.55  E(vib)   ...       0.00 
freq.    3129.52  E(vib)   ...       0.00 
freq.    3139.02  E(vib)   ...       0.00 
freq.    3142.14  E(vib)   ...       0.00 
freq.    3152.35  E(vib)   ...       0.00 
freq.    3185.20  E(vib)   ...       0.00 
freq.    3226.55  E(vib)   ...       0.00 

------------
INNER ENERGY
------------

The inner energy is: U= E(el) + E(ZPE) + E(vib) + E(rot) + E(trans)
    E(el)   - is the total energy from the electronic structure calculation
              = E(kin-el) + E(nuc-el) + E(el-el) + E(nuc-nuc)
    E(ZPE)  - the the zero temperature vibrational energy from the frequency calculation
    E(vib)  - the the finite temperature correction to E(ZPE) due to population
              of excited vibrational states
    E(rot)  - is the rotational thermal energy
    E(trans)- is the translational thermal energy

Summary of contributions to the inner energy U:
Electronic energy                ...   -426.36060042 Eh
Zero point energy                ...      0.21194179 Eh     133.00 kcal/mol
Thermal vibrational correction   ...      0.00932608 Eh       5.85 kcal/mol
Thermal rotational correction    ...      0.00141627 Eh       0.89 kcal/mol
Thermal translational correction ...      0.00141627 Eh       0.89 kcal/mol
-----------------------------------------------------------------------
Total thermal energy                   -426.13650001 Eh


Summary of corrections to the electronic energy:
(perhaps to be used in another calculation)
Total thermal correction                  0.01215862 Eh       7.63 kcal/mol
Non-thermal (ZPE) correction              0.21194179 Eh     133.00 kcal/mol
-----------------------------------------------------------------------
Total correction                          0.22410041 Eh     140.62 kcal/mol


--------
ENTHALPY
--------

The enthalpy is H = U + kB*T
                kB is Boltzmann's constant
Total free energy                 ...   -426.13650001 Eh 
Thermal Enthalpy correction       ...      0.00094421 Eh       0.59 kcal/mol
-----------------------------------------------------------------------
Total Enthalpy                    ...   -426.13555580 Eh


Note: Only C1 symmetry has been detected, increase convergence thresholds 
      if your molecule has a higher symmetry. Symmetry factor of 1.0 is   
      used for the rotational entropy correction. 
 

Note: Rotational entropy computed according to Herzberg 
Infrared and Raman Spectra, Chapter V,1, Van Nostrand Reinhold, 1945 
Point Group:  C1, Symmetry Number:   1  
Rotational constants in cm-1:     0.049099     0.011631     0.011172 

Vibrational entropy computed according to the QRRHO of S. Grimme
Chem.Eur.J. 2012 18 9955


-------
ENTROPY
-------

The entropy contributions are T*S = T*(S(el)+S(vib)+S(rot)+S(trans))
     S(el)   - electronic entropy
     S(vib)  - vibrational entropy
     S(rot)  - rotational entropy
     S(trans)- translational entropy
The entropies will be listed as multiplied by the temperature to get
units of energy

Electronic entropy                ...      0.00000000 Eh      0.00 kcal/mol
Vibrational entropy               ...      0.01604959 Eh     10.07 kcal/mol
Rotational entropy                ...      0.01515813 Eh      9.51 kcal/mol
Translational entropy             ...      0.02027335 Eh     12.72 kcal/mol
-----------------------------------------------------------------------
Final entropy term                ...      0.05148107 Eh     32.30 kcal/mol

In case the symmetry of your molecule has not been determined correctly
or in case you have a reason to use a different symmetry number we print 
out the resulting rotational entropy values for sn=1,12 :
 --------------------------------------------------------
|  sn= 1 | S(rot)=       0.01515813 Eh      9.51 kcal/mol|
|  sn= 2 | S(rot)=       0.01450367 Eh      9.10 kcal/mol|
|  sn= 3 | S(rot)=       0.01412084 Eh      8.86 kcal/mol|
|  sn= 4 | S(rot)=       0.01384922 Eh      8.69 kcal/mol|
|  sn= 5 | S(rot)=       0.01363853 Eh      8.56 kcal/mol|
|  sn= 6 | S(rot)=       0.01346638 Eh      8.45 kcal/mol|
|  sn= 7 | S(rot)=       0.01332084 Eh      8.36 kcal/mol|
|  sn= 8 | S(rot)=       0.01319476 Eh      8.28 kcal/mol|
|  sn= 9 | S(rot)=       0.01308355 Eh      8.21 kcal/mol|
|  sn=10 | S(rot)=       0.01298407 Eh      8.15 kcal/mol|
|  sn=11 | S(rot)=       0.01289408 Eh      8.09 kcal/mol|
|  sn=12 | S(rot)=       0.01281193 Eh      8.04 kcal/mol|
 --------------------------------------------------------


-------------------
GIBBS FREE ENERGY
-------------------

The Gibbs free energy is G = H - T*S

Total enthalpy                    ...   -426.13555580 Eh 
Total entropy correction          ...     -0.05148107 Eh    -32.30 kcal/mol
-----------------------------------------------------------------------
Final Gibbs free energy         ...   -426.18703687 Eh

For completeness - the Gibbs free energy minus the electronic energy
G-E(el)                           ...      0.17356356 Eh    108.91 kcal/mol


Timings for individual modules:

Sum of individual times         ...    40578.741 sec (= 676.312 min)
GTO integral calculation        ...       38.466 sec (=   0.641 min)   0.1 %
SCF iterations                  ...    19244.540 sec (= 320.742 min)  47.4 %
SCF Gradient evaluation         ...     5848.033 sec (=  97.467 min)  14.4 %
Geometry relaxation             ...        2.503 sec (=   0.042 min)   0.0 %
Analytical frequency calculation...    15445.200 sec (= 257.420 min)  38.1 %
                             ****ORCA TERMINATED NORMALLY****
TOTAL RUN TIME: 0 days 11 hours 16 minutes 22 seconds 324 msec
