
                                 *****************
                                 * O   R   C   A *
                                 *****************

                                            #,                                       
                                            ###                                      
                                            ####                                     
                                            #####                                    
                                            ######                                   
                                           ########,                                 
                                     ,,################,,,,,                         
                               ,,#################################,,                 
                          ,,##########################################,,             
                       ,#########################################, ''#####,          
                    ,#############################################,,   '####,        
                  ,##################################################,,,,####,       
                ,###########''''           ''''###############################       
              ,#####''   ,,,,##########,,,,          '''####'''          '####       
            ,##' ,,,,###########################,,,                        '##       
           ' ,,###''''                  '''############,,,                           
         ,,##''                                '''############,,,,        ,,,,,,###''
      ,#''                                            '''#######################'''  
     '                                                          ''''####''''         
             ,#######,   #######,   ,#######,      ##                                
            ,#'     '#,  ##    ##  ,#'     '#,    #''#        ######   ,####,        
            ##       ##  ##   ,#'  ##            #'  '#       #        #'  '#        
            ##       ##  #######   ##           ,######,      #####,   #    #        
            '#,     ,#'  ##    ##  '#,     ,#' ,#      #,         ##   #,  ,#        
             '#######'   ##     ##  '#######'  #'      '#     #####' # '####'        



                  #######################################################
                  #                        -***-                        #
                  #          Department of theory and spectroscopy      #
                  #    Directorship and core code : Frank Neese         #
                  #        Max Planck Institute fuer Kohlenforschung    #
                  #                Kaiser Wilhelm Platz 1               #
                  #                 D-45470 Muelheim/Ruhr               #
                  #                      Germany                        #
                  #                                                     #
                  #                  All rights reserved                #
                  #                        -***-                        #
                  #######################################################


                         Program Version 5.0.4 -  RELEASE  -


 With contributions from (in alphabetic order):
   Daniel Aravena         : Magnetic Suceptibility
   Michael Atanasov       : Ab Initio Ligand Field Theory (pilot matlab implementation)
   Alexander A. Auer      : GIAO ZORA, VPT2 properties, NMR spectrum
   Ute Becker             : Parallelization
   Giovanni Bistoni       : ED, misc. LED, open-shell LED, HFLD
   Martin Brehm           : Molecular dynamics
   Dmytro Bykov           : SCF Hessian
   Vijay G. Chilkuri      : MRCI spin determinant printing, contributions to CSF-ICE
   Dipayan Datta          : RHF DLPNO-CCSD density
   Achintya Kumar Dutta   : EOM-CC, STEOM-CC
   Dmitry Ganyushin       : Spin-Orbit,Spin-Spin,Magnetic field MRCI
   Miquel Garcia          : C-PCM and meta-GGA Hessian, CC/C-PCM, Gaussian charge scheme
   Yang Guo               : DLPNO-NEVPT2, F12-NEVPT2, CIM, IAO-localization
   Andreas Hansen         : Spin unrestricted coupled pair/coupled cluster methods
   Benjamin Helmich-Paris : MC-RPA, TRAH-SCF, COSX integrals
   Lee Huntington         : MR-EOM, pCC
   Robert Izsak           : Overlap fitted RIJCOSX, COSX-SCS-MP3, EOM
   Marcus Kettner         : VPT2
   Christian Kollmar      : KDIIS, OOCD, Brueckner-CCSD(T), CCSD density, CASPT2, CASPT2-K
   Simone Kossmann        : Meta GGA functionals, TD-DFT gradient, OOMP2, MP2 Hessian
   Martin Krupicka        : Initial AUTO-CI
   Lucas Lang             : DCDCAS
   Marvin Lechner         : AUTO-CI (C++ implementation), FIC-MRCC
   Dagmar Lenk            : GEPOL surface, SMD
   Dimitrios Liakos       : Extrapolation schemes; Compound Job, initial MDCI parallelization
   Dimitrios Manganas     : Further ROCIS development; embedding schemes
   Dimitrios Pantazis     : SARC Basis sets
   Anastasios Papadopoulos: AUTO-CI, single reference methods and gradients
   Taras Petrenko         : DFT Hessian,TD-DFT gradient, ASA, ECA, R-Raman, ABS, FL, XAS/XES, NRVS
   Peter Pinski           : DLPNO-MP2, DLPNO-MP2 Gradient
   Christoph Reimann      : Effective Core Potentials
   Marius Retegan         : Local ZFS, SOC
   Christoph Riplinger    : Optimizer, TS searches, QM/MM, DLPNO-CCSD(T), (RO)-DLPNO pert. Triples
   Tobias Risthaus        : Range-separated hybrids, TD-DFT gradient, RPA, STAB
   Michael Roemelt        : Original ROCIS implementation
   Masaaki Saitow         : Open-shell DLPNO-CCSD energy and density
   Barbara Sandhoefer     : DKH picture change effects
   Avijit Sen             : IP-ROCIS
   Kantharuban Sivalingam : CASSCF convergence, NEVPT2, FIC-MRCI
   Bernardo de Souza      : ESD, SOC TD-DFT
   Georgi Stoychev        : AutoAux, RI-MP2 NMR, DLPNO-MP2 response
   Willem Van den Heuvel  : Paramagnetic NMR
   Boris Wezisla          : Elementary symmetry handling
   Frank Wennmohs         : Technical directorship


 We gratefully acknowledge several colleagues who have allowed us to
 interface, adapt or use parts of their codes:
   Stefan Grimme, W. Hujo, H. Kruse, P. Pracht,  : VdW corrections, initial TS optimization,
                  C. Bannwarth, S. Ehlert          DFT functionals, gCP, sTDA/sTD-DF
   Ed Valeev, F. Pavosevic, A. Kumar             : LibInt (2-el integral package), F12 methods
   Garnet Chan, S. Sharma, J. Yang, R. Olivares  : DMRG
   Ulf Ekstrom                                   : XCFun DFT Library
   Mihaly Kallay                                 : mrcc  (arbitrary order and MRCC methods)
   Jiri Pittner, Ondrej Demel                    : Mk-CCSD
   Frank Weinhold                                : gennbo (NPA and NBO analysis)
   Christopher J. Cramer and Donald G. Truhlar   : smd solvation model
   Lars Goerigk                                  : TD-DFT with DH, B97 family of functionals
   V. Asgeirsson, H. Jonsson                     : NEB implementation
   FAccTs GmbH                                   : IRC, NEB, NEB-TS, DLPNO-Multilevel, CI-OPT
                                                   MM, QMMM, 2- and 3-layer-ONIOM, Crystal-QMMM,
                                                   LR-CPCM, SF, NACMEs, symmetry and pop. for TD-DFT,
                                                   nearIR, NL-DFT gradient (VV10), updates on ESD,
                                                   ML-optimized integration grids
   S Lehtola, MJT Oliveira, MAL Marques          : LibXC Library
   Liviu Ungur et al                             : ANISO software


 Your calculation uses the libint2 library for the computation of 2-el integrals
 For citations please refer to: http://libint.valeyev.net

 Your ORCA version has been built with support for libXC version: 5.1.0
 For citations please refer to: https://tddft.org/programs/libxc/

 This ORCA versions uses:
   CBLAS   interface :  Fast vector & matrix operations
   LAPACKE interface :  Fast linear algebra routines
   SCALAPACK package :  Parallel linear algebra routines
   Shared memory     :  Shared parallel matrices
   BLAS/LAPACK       :  OpenBLAS 0.3.15  USE64BITINT DYNAMIC_ARCH NO_AFFINITY SkylakeX SINGLE_THREADED
        Core in use  :  SkylakeX
   Copyright (c) 2011-2014, The OpenBLAS Project


Your calculation utilizes the atom-pairwise dispersion correction
based on tight binding partial charges (D4)
Cite in your paper:
E.Caldeweyher, C.Bannwarth, S.Grimme, J.Chem.Phys., (2017), 147, 034112.
E.Caldeweyher, S.Ehlert, A.Hansen, H.Neugebauer, S.Grimme, J.Chem.Phys., (2018), in progress.
   

XCFun DFT library Copyright 2009-2010 Ulf Ekstrom and contributors.
See http://admol.org/xcfun for more information.
This is free software; see the source code for copying conditions.
There is ABSOLUTELY NO WARRANTY; not even for MERCHANTABILITY or FITNESS FOR A PARTICULAR PURPOSE.
For details see the documentation.
Scientific users of this library should cite U. Ekstrom, L. Visscher, R. Bast, A. J. Thorvaldsen and K. Ruud;
J.Chem.Theor.Comp. 2010, DOI: 10.1021/ct100117s
XCFun Version 0.99 

================================================================================

----- Orbital basis set information -----
Your calculation utilizes the basis: def2-SVP
   F. Weigend and R. Ahlrichs, Phys. Chem. Chem. Phys. 7, 3297 (2005).

----- AuxJ basis set information -----
Your calculation utilizes the auxiliary basis: def2/J
   F. Weigend, Phys. Chem. Chem. Phys. 8, 1057 (2006).

================================================================================
                                        WARNINGS
                       Please study these warnings very carefully!
================================================================================


WARNING: Geometry Optimization
  ===> : Switching off AutoStart
         For restart on a previous wavefunction, please use MOREAD

INFO   : the flag for use of the SHARK integral package has been found!

================================================================================
                                       INPUT FILE
================================================================================
NAME = cpcm_opt.inp
|  1> ! OPT wB97X D4 def2-SVP def2/J defgrid2 XYZFILE CPCM(Water)
|  2> %maxcore 3000
|  3> %geom
|  4> maxiter 200
|  5> end
|  6> %PAL NPROCS 10 END
|  7> * xyz 1 1
|  8> C -0.038892995 1.5540472442 0.046531964
|  9> C 0.0306251156 0.0624852688 -0.0499048004
| 10> C 0.7074763245 -0.4734024255 -1.2384568927
| 11> C 1.2492377287 -0.9178046091 -2.1895803523
| 12> H -0.57246176 1.7371252302 0.9868048335
| 13> Cl 0.5180586064 -0.3077117559 0.852349865
| 14> H -0.9877068341 -0.3234513066 0.0019860753
| 15> H 1.7337043125 -1.3069521469 -3.0402627779
| 16> H 0.19313233220000003 2.2082892389 -0.37538608855
| 17> *
| 18> 
| 19>                          ****END OF INPUT****
================================================================================

                       *****************************
                       * Geometry Optimization Run *
                       *****************************

Geometry optimization settings:
Update method            Update   .... BFGS
Choice of coordinates    CoordSys .... Z-matrix Internals
Initial Hessian          InHess   .... Almoef's Model

Convergence Tolerances:
Energy Change            TolE     ....  5.0000e-06 Eh
Max. Gradient            TolMAXG  ....  3.0000e-04 Eh/bohr
RMS Gradient             TolRMSG  ....  1.0000e-04 Eh/bohr
Max. Displacement        TolMAXD  ....  4.0000e-03 bohr
RMS Displacement         TolRMSD  ....  2.0000e-03 bohr
Strict Convergence                ....  False
------------------------------------------------------------------------------
                        ORCA OPTIMIZATION COORDINATE SETUP
------------------------------------------------------------------------------

The optimization will be done in new redundant internal coordinates
Making redundant internal coordinates   ...  (new redundants) done
Evaluating the initial hessian          ...  (Almloef) done
Evaluating the coordinates              ...  done
Calculating the B-matrix                .... done
Calculating the G-matrix                .... done
Diagonalizing the G-matrix              .... done
The first mode is                       ....   30
The number of degrees of freedom        ....   21

    -----------------------------------------------------------------
                    Redundant Internal Coordinates


    -----------------------------------------------------------------
         Definition                    Initial Value    Approx d2E/dq
    -----------------------------------------------------------------
      1. B(C   1,C   0)                  1.4963         0.422821   
      2. B(C   2,C   1)                  1.4690         0.467412   
      3. B(C   3,C   2)                  1.1814         1.344605   
      4. B(H   4,C   0)                  1.0965         0.351595   
      5. B(Cl  5,C   1)                  1.0903         4.216244   
      6. B(Cl  5,C   2)                  2.1059         0.101057   
      7. B(Cl  5,C   0)                  2.1037         0.101864   
      8. B(H   6,C   1)                  1.0902         0.359773   
      9. B(H   7,C   3)                  1.0535         0.411813   
     10. B(H   8,C   0)                  0.8123         0.998676   
     11. A(C   1,C   0,H   4)          104.1412         0.329702   
     12. A(Cl  5,C   0,H   8)          146.7286         0.322640   
     13. A(C   1,C   0,Cl  5)           29.5652         0.311383   
     14. A(H   4,C   0,Cl  5)           87.0263         0.273471   
     15. A(H   4,C   0,H   8)          116.7376         0.341886   
     16. A(C   1,C   0,H   8)          139.1212         0.393857   
     17. A(Cl  5,C   1,H   6)          104.9515         0.519680   
     18. A(C   0,C   1,H   6)          107.8429         0.330958   
     19. A(C   2,C   1,Cl  5)          109.8588         0.617351   
     20. A(C   0,C   1,Cl  5)          107.8127         0.605496   
     21. A(C   0,C   1,C   2)          115.9252         0.385830   
     22. A(C   2,C   1,H   6)          109.8609         0.336511   
     23. A(C   3,C   2,Cl  5)          150.4794         0.377429   
     24. A(C   1,C   2,Cl  5)           29.1395         0.316078   
     25. L(C   2,C   3,H   7,Cl  5, 1) 180.2282         0.413145   
     26. L(C   2,C   3,H   7,Cl  5, 2) 181.0846         0.413145   
     27. A(C   0,Cl  5,C   1)           42.6221         0.484837   
     28. A(C   1,Cl  5,C   2)           41.0018         0.484125   
     29. A(C   0,Cl  5,C   2)           73.3302         0.259125   
     30. D(C   2,C   1,C   0,H   4)    179.9749         0.014141   
     31. D(H   6,C   1,C   0,H   4)     56.3800         0.014141   
     32. D(Cl  5,C   1,C   0,H   8)    123.5429         0.014141   
     33. D(Cl  5,C   1,C   0,H   4)    -56.4571         0.014141   
     34. D(H   6,C   1,C   0,Cl  5)    112.8370         0.014141   
     35. D(C   2,C   1,C   0,H   8)     -0.0251         0.014141   
     36. D(C   2,C   1,C   0,Cl  5)   -123.5680         0.014141   
     37. D(H   6,C   1,C   0,H   8)   -123.6200         0.014141   
     38. D(Cl  5,C   2,C   1,C   0)    122.4945         0.016106   
     39. D(Cl  5,C   2,C   1,H   6)   -114.9690         0.016106   
     40. D(C   2,Cl  5,C   0,H   4)    159.0425         0.001718   
     41. D(C   2,Cl  5,C   0,C   1)     33.0706         0.001718   
     42. D(C   1,Cl  5,C   0,H   8)    -96.1239         0.001718   
     43. D(C   2,Cl  5,C   0,H   8)    -63.0533         0.001718   
     44. D(C   1,Cl  5,C   0,H   4)    125.9719         0.001718   
     45. D(C   0,Cl  5,C   2,C   3)    146.9256         0.001697   
     46. D(C   0,Cl  5,C   2,C   1)    -34.2776         0.001697   
     47. D(C   2,Cl  5,C   1,H   6)    118.0555         0.710955   
     48. D(C   2,Cl  5,C   1,C   0)   -127.1783         0.710955   
     49. D(C   0,Cl  5,C   1,H   6)   -114.7662         0.710955   
     50. D(C   1,Cl  5,C   2,C   3)   -178.7968         0.001697   
     51. D(C   0,Cl  5,C   1,C   2)    127.1783         0.710955   
    -----------------------------------------------------------------

Number of atoms                         .... 9
Number of degrees of freedom            .... 51

         *************************************************************
         *                GEOMETRY OPTIMIZATION CYCLE   1            *
         *************************************************************
---------------------------------
CARTESIAN COORDINATES (ANGSTROEM)
---------------------------------
  C     -0.038893    1.554047    0.046532
  C      0.030625    0.062485   -0.049905
  C      0.707476   -0.473402   -1.238457
  C      1.249238   -0.917805   -2.189580
  H     -0.572462    1.737125    0.986805
  Cl     0.518059   -0.307712    0.852350
  H     -0.987707   -0.323451    0.001986
  H      1.733704   -1.306952   -3.040263
  H      0.193132    2.208289   -0.375386

----------------------------
CARTESIAN COORDINATES (A.U.)
----------------------------
  NO LB      ZA    FRAG     MASS         X           Y           Z
   0 C     6.0000    0    12.011   -0.073497    2.936724    0.087933
   1 C     6.0000    0    12.011    0.057873    0.118080   -0.094306
   2 C     6.0000    0    12.011    1.336936   -0.894601   -2.340344
   3 C     6.0000    0    12.011    2.360717   -1.734399   -4.137707
   4 H     1.0000    0     1.008   -1.081796    3.282691    1.864791
   5 Cl   17.0000    0    35.453    0.978989   -0.581491    1.610708
   6 H     1.0000    0     1.008   -1.866495   -0.611234    0.003753
   7 H     1.0000    0     1.008    3.276226   -2.469782   -5.745264
   8 H     1.0000    0     1.008    0.364967    4.173062   -0.709377

--------------------------------
INTERNAL COORDINATES (ANGSTROEM)
--------------------------------
 C      0   0   0     0.000000000000     0.00000000     0.00000000
 C      1   0   0     1.496292064969     0.00000000     0.00000000
 C      2   1   0     1.468999406400   115.92521660     0.00000000
 C      3   2   1     1.181369779227   179.29814386   180.12741035
 H      1   2   3     1.096506381677   104.14119835   179.97490397
 Cl     2   1   3     1.090275527693   107.81270438   123.56803740
 H      2   1   3     1.090247523727   107.84287231   236.40506716
 H      4   3   2     1.053472480048   179.58132091   179.87506243
 H      1   2   3     0.812331941486   139.12123738   359.97490397

---------------------------
INTERNAL COORDINATES (A.U.)
---------------------------
 C      0   0   0     0.000000000000     0.00000000     0.00000000
 C      1   0   0     2.827582219150     0.00000000     0.00000000
 C      2   1   0     2.776006568988   115.92521660     0.00000000
 C      3   2   1     2.232465345630   179.29814386   180.12741035
 H      1   2   3     2.072096765467   104.14119835   179.97490397
 Cl     2   1   3     2.060322157856   107.81270438   123.56803740
 H      2   1   3     2.060269238029   107.84287231   236.40506716
 H      4   3   2     1.990774476914   179.58132091   179.87506243
 H      1   2   3     1.535084899246   139.12123738   359.97490397

---------------------
BASIS SET INFORMATION
---------------------
There are 3 groups of distinct atoms

 Group   1 Type C   : 7s4p1d contracted to 3s2p1d pattern {511/31/1}
 Group   2 Type H   : 4s1p contracted to 2s1p pattern {31/1}
 Group   3 Type Cl  : 10s7p1d contracted to 4s3p1d pattern {5311/511/1}

Atom   0C    basis set group =>   1
Atom   1C    basis set group =>   1
Atom   2C    basis set group =>   1
Atom   3C    basis set group =>   1
Atom   4H    basis set group =>   2
Atom   5Cl   basis set group =>   3
Atom   6H    basis set group =>   2
Atom   7H    basis set group =>   2
Atom   8H    basis set group =>   2
---------------------------------
AUXILIARY/J BASIS SET INFORMATION
---------------------------------
There are 3 groups of distinct atoms

 Group   1 Type C   : 12s5p4d2f1g contracted to 6s4p3d1f1g pattern {711111/2111/211/2/1}
 Group   2 Type H   : 5s2p1d contracted to 3s1p1d pattern {311/2/1}
 Group   3 Type Cl  : 14s5p5d2f1g contracted to 8s4p3d1f1g pattern {71111111/2111/311/2/1}

Atom   0C    basis set group =>   1
Atom   1C    basis set group =>   1
Atom   2C    basis set group =>   1
Atom   3C    basis set group =>   1
Atom   4H    basis set group =>   2
Atom   5Cl   basis set group =>   3
Atom   6H    basis set group =>   2
Atom   7H    basis set group =>   2
Atom   8H    basis set group =>   2


           ************************************************************
           *        Program running with 10 parallel MPI-processes    *
           *              working on a common directory               *
           ************************************************************
------------------------------------------------------------------------------
                           ORCA GTO INTEGRAL CALCULATION
                           -- RI-GTO INTEGRALS CHOSEN --
------------------------------------------------------------------------------
------------------------------------------------------------------------------
                   ___                                                        
                  /   \      - P O W E R E D   B Y -                         
                 /     \                                                     
                 |  |  |   _    _      __       _____    __    __             
                 |  |  |  | |  | |    /  \     |  _  \  |  |  /  |          
                  \  \/   | |  | |   /    \    | | | |  |  | /  /          
                 / \  \   | |__| |  /  /\  \   | |_| |  |  |/  /          
                |  |  |   |  __  | /  /__\  \  |    /   |      \           
                |  |  |   | |  | | |   __   |  |    \   |  |\   \          
                \     /   | |  | | |  |  |  |  | |\  \  |  | \   \       
                 \___/    |_|  |_| |__|  |__|  |_| \__\ |__|  \__/        
                                                                              
                      - O R C A' S   B I G   F R I E N D -                    
                                      &                                       
                       - I N T E G R A L  F E E D E R -                       
                                                                              
 v1 FN, 2020, v2 2021                                                         
------------------------------------------------------------------------------


Reading SHARK input file cpcm_opt.SHARKINP.tmp ... ok
----------------------
SHARK INTEGRAL PACKAGE
----------------------

Number of atoms                             ...      9
Number of basis functions                   ...     94
Number of shells                            ...     44
Maximum angular momentum                    ...      2
Integral batch strategy                     ... SHARK/LIBINT Hybrid
RI-J (if used) integral strategy            ... SPLIT-RIJ (Revised 2003 algorithm where possible)
Printlevel                                  ...      1
Contraction scheme used                     ... SEGMENTED contraction
Coulomb Range Separation                    ... NOT USED
Exchange Range Separation                   ... Long Range
   Mu parameter                             ...  0.300000
   Scaling (regular/separated)              ...  0.157706  0.842294
Finite Nucleus Model                        ... NOT USED
Auxiliary Coulomb fitting basis             ... AVAILABLE
   # of basis functions in Aux-J            ...    291
   # of shells in Aux-J                     ...     97
   Maximum angular momentum in Aux-J        ...      4
Auxiliary J/K fitting basis                 ... NOT available
Auxiliary Correlation fitting basis         ... NOT available
Auxiliary 'external' fitting basis          ... NOT available
Integral threshold                          ...     2.500000e-11
Primitive cut-off                           ...     2.500000e-12
Primitive pair pre-selection threshold      ...     2.500000e-12

Calculating pre-screening integrals         ... done (  0.0 sec) Dimension = 44
Organizing shell pair data                  ... done (  0.0 sec)
Shell pair information
Total number of shell pairs                 ...       990
Shell pairs after pre-screening             ...       966
Total number of primitive shell pairs       ...      3828
Primitive shell pairs kept                  ...      2935
          la=0 lb=0:    290 shell pairs
          la=1 lb=0:    351 shell pairs
          la=1 lb=1:    117 shell pairs
          la=2 lb=0:    118 shell pairs
          la=2 lb=1:     75 shell pairs
          la=2 lb=2:     15 shell pairs

Calculating one electron integrals          ... done (  0.0 sec)
Calculating RI/J V-Matrix + Cholesky decomp.... done (  0.0 sec)
Calculating Nuclear repulsion               ... done (  0.0 sec) ENN=    221.446036504709 Eh

SHARK setup successfully completed in   0.2 seconds

Maximum memory used throughout the entire GTOINT-calculation: 9.7 MB


           ************************************************************
           *        Program running with 10 parallel MPI-processes    *
           *              working on a common directory               *
           ************************************************************
-------------------------------------------------------------------------------
                                 ORCA SCF
-------------------------------------------------------------------------------

------------
SCF SETTINGS
------------
Hamiltonian:
 Density Functional     Method          .... DFT(GTOs)
 Exchange Functional    Exchange        .... WB97X
 Correlation Functional Correlation     .... WB97X
 Gradients option       PostSCFGGA      .... off
 Hybrid DFT is turned on
   Fraction HF Exchange ScalHFX         ....  0.157706
   Scaling of DF-GGA-X  ScalDFX         ....  0.000000
   Scaling of DF-GGA-C  ScalDFC         ....  1.000000
   Scaling of DF-LDA-C  ScalLDAC        ....  1.000000
   Perturbative correction              ....  0.000000
   Density functional embedding theory  .... OFF
 Long-range corrected/Screened/Range-Separated Hybrid DFT is turned on
   Amount of maximum screened exact exchange              ....  0.842294
   Range separation parameter mu (erf(mu*r12)/r12)        ....  0.300000
 RI-approximation to the Coulomb term is turned on
   Number of AuxJ basis functions       .... 291
   RIJ-COSX (HFX calculated with COS-X)).... on


General Settings:
 Integral files         IntName         .... cpcm_opt
 Hartree-Fock type      HFTyp           .... RHF
 Total Charge           Charge          ....    1
 Multiplicity           Mult            ....    1
 Number of Electrons    NEL             ....   44
 Basis Dimension        Dim             ....   94
 Nuclear Repulsion      ENuc            ....    221.4460365047 Eh

Convergence Acceleration:
 DIIS                   CNVDIIS         .... on
   Start iteration      DIISMaxIt       ....    12
   Startup error        DIISStart       ....  0.200000
   # of expansion vecs  DIISMaxEq       ....     5
   Bias factor          DIISBfac        ....   1.050
   Max. coefficient     DIISMaxC        ....  10.000
 Trust-Rad. Augm. Hess. CNVTRAH         .... auto
   Auto Start mean grad. ratio tolernc. ....  1.125000
   Auto Start start iteration           ....    20
   Auto Start num. interpolation iter.  ....    10
   Max. Number of Micro iterations      ....    16
   Max. Number of Macro iterations      .... Maxiter - #DIIS iter
   Number of Davidson start vectors     ....     2
   Converg. threshold I  (grad. norm)   ....   1.000e-05
   Converg. threshold II (energy diff.) ....   1.000e-08
   Grad. Scal. Fac. for Micro threshold ....   0.100
   Minimum threshold for Micro iter.    ....   0.010
   NR start threshold (gradient norm)   ....   0.001
   Initial trust radius                 ....   0.400
   Minimum AH scaling param. (alpha)    ....   1.000
   Maximum AH scaling param. (alpha)    .... 1000.000
   Orbital update algorithm             .... Taylor
   White noise on init. David. guess    .... on
   Maximum white noise                  ....   0.010
   Quad. conv. algorithm                .... NR
 SOSCF                  CNVSOSCF        .... on
   Start iteration      SOSCFMaxIt      ....   150
   Startup grad/error   SOSCFStart      ....  0.003300
 Level Shifting         CNVShift        .... on
   Level shift para.    LevelShift      ....    0.2500
   Turn off err/grad.   ShiftErr        ....    0.0010
 Zerner damping         CNVZerner       .... off
 Static damping         CNVDamp         .... on
   Fraction old density DampFac         ....    0.7000
   Max. Damping (<1)    DampMax         ....    0.9800
   Min. Damping (>=0)   DampMin         ....    0.0000
   Turn off err/grad.   DampErr         ....    0.1000
 Fernandez-Rico         CNVRico         .... off

SCF Procedure:
 Maximum # iterations   MaxIter         ....   125
 SCF integral mode      SCFMode         .... Direct
   Integral package                     .... SHARK and LIBINT hybrid scheme
 Reset frequency        DirectResetFreq ....    20
 Integral Threshold     Thresh          ....  2.500e-11 Eh
 Primitive CutOff       TCut            ....  2.500e-12 Eh

Convergence Tolerance:
 Convergence Check Mode ConvCheckMode   .... Total+1el-Energy
 Convergence forced     ConvForced      .... 0
 Energy Change          TolE            ....  1.000e-08 Eh
 1-El. energy change                    ....  1.000e-05 Eh
 Orbital Gradient       TolG            ....  1.000e-05
 Orbital Rotation angle TolX            ....  1.000e-05
 DIIS Error             TolErr          ....  5.000e-07


Diagonalization of the overlap matrix:
Smallest eigenvalue                        ... 5.451e-04
Time for diagonalization                   ...    0.111 sec
Threshold for overlap eigenvalues          ... 1.000e-08
Number of eigenvalues below threshold      ... 0
Time for construction of square roots      ...    0.004 sec
Total time needed                          ...    0.115 sec

Time for model grid setup =    0.040 sec

------------------------------
INITIAL GUESS: MODEL POTENTIAL
------------------------------
Loading Hartree-Fock densities                     ... done
Calculating cut-offs                               ... done
Initializing the effective Hamiltonian             ... done
Setting up the integral package (SHARK)            ... done
Starting the Coulomb interaction                   ... done (   0.0 sec)
Reading the grid                                   ... done
Mapping shells                                     ... done
Starting the XC term evaluation                    ... done (   0.0 sec)
  promolecular density results
     # of electrons  =     44.998924964
     EX              =    -49.351581728
     EC              =     -1.605603548
     EX+EC           =    -50.957185276
Transforming the Hamiltonian                       ... done (   0.0 sec)
Diagonalizing the Hamiltonian                      ... done (   0.0 sec)
Back transforming the eigenvectors                 ... done (   0.0 sec)
Now organizing SCF variables                       ... done
                      ------------------
                      INITIAL GUESS DONE (   0.1 sec)
                      ------------------
-------------------
DFT GRID GENERATION
-------------------

General Integration Accuracy     IntAcc      ... 4.388
Radial Grid Type                 RadialGrid  ... OptM3 with GC (2021)
Angular Grid (max. ang.)         AngularGrid ... 4 (Lebedev-302)
Angular grid pruning method      GridPruning ... 4 (adaptive)
Weight generation scheme         WeightScheme... Becke
Basis function cutoff            BFCut       ... 1.0000e-11
Integration weight cutoff        WCut        ... 1.0000e-14
Angular grids for H and He will be reduced by one unit
Partially contracted basis set               ... off
Rotationally invariant grid construction     ... off

Total number of grid points                  ...    44515
Total number of batches                      ...      702
Average number of points per batch           ...       63
Average number of grid points per atom       ...     4946
Time for grid setup =    0.215 sec

--------------------
COSX GRID GENERATION
--------------------

GRIDX 1
-------
General Integration Accuracy     IntAcc      ... 3.816
Radial Grid Type                 RadialGrid  ... OptM3 with GC (2021)
Angular Grid (max. ang.)         AngularGrid ... 1 (Lebedev-50)
Angular grid pruning method      GridPruning ... 4 (adaptive)
Weight generation scheme         WeightScheme... Becke
Basis function cutoff            BFCut       ... 1.0000e-11
Integration weight cutoff        WCut        ... 1.0000e-14
Angular grids for H and He will be reduced by one unit
Partially contracted basis set               ... on
Rotationally invariant grid construction     ... off

Total number of grid points                  ...     5618
Total number of batches                      ...       94
Average number of points per batch           ...       59
Average number of grid points per atom       ...      624
UseSFitting                                  ... on

GRIDX 2
-------
General Integration Accuracy     IntAcc      ... 4.020
Radial Grid Type                 RadialGrid  ... OptM3 with GC (2021)
Angular Grid (max. ang.)         AngularGrid ... 2 (Lebedev-110)
Angular grid pruning method      GridPruning ... 4 (adaptive)
Weight generation scheme         WeightScheme... Becke
Basis function cutoff            BFCut       ... 1.0000e-11
Integration weight cutoff        WCut        ... 1.0000e-14
Angular grids for H and He will be reduced by one unit
Partially contracted basis set               ... on
Rotationally invariant grid construction     ... off

Total number of grid points                  ...    12434
Total number of batches                      ...      200
Average number of points per batch           ...       62
Average number of grid points per atom       ...     1382
UseSFitting                                  ... on

GRIDX 3
-------
General Integration Accuracy     IntAcc      ... 4.338
Radial Grid Type                 RadialGrid  ... OptM3 with GC (2021)
Angular Grid (max. ang.)         AngularGrid ... 3 (Lebedev-194)
Angular grid pruning method      GridPruning ... 4 (adaptive)
Weight generation scheme         WeightScheme... Becke
Basis function cutoff            BFCut       ... 1.0000e-11
Integration weight cutoff        WCut        ... 1.0000e-14
Angular grids for H and He will be reduced by one unit
Partially contracted basis set               ... on
Rotationally invariant grid construction     ... off

Total number of grid points                  ...    28029
Total number of batches                      ...      442
Average number of points per batch           ...       63
Average number of grid points per atom       ...     3114
UseSFitting                                  ... on

Time for X-Grid setup             =    0.204 sec


--------------------
CPCM SOLVATION MODEL
--------------------
CPCM parameters:
  Epsilon                                         ...      80.4000
  Refrac                                          ...       1.3300
  Rsolv                                           ...       1.3000
  Surface type                                    ... GAUSSIAN VDW
  Epsilon function type                           ...         CPCM
Radii:
 Radius for C  used is    3.8550 Bohr (=   2.0400 Ang.)
 Radius for H  used is    2.4944 Bohr (=   1.3200 Ang.)
 Radius for Cl used is    3.9684 Bohr (=   2.1000 Ang.)
Calculating surface                               ...        done! (  0.0s)
GEPOL surface points                              ...          553
GEPOL Volume                                      ...     702.7395
GEPOL Surface-area                                ...     429.0606
Calculating surface distance matrix               ...        done! (  0.0s)
Performing Cholesky decomposition & store         ...        done! (  0.0s)
Overall time for CPCM initialization              ...                 0.0s
--------------
SCF ITERATIONS
--------------
ITER       Energy         Delta-E        Max-DP      RMS-DP      [F,P]     Damp
               ***  Starting incremental Fock matrix formation  ***
  0   -613.3177254635   0.000000000000 0.07719417  0.00350370  0.1409930 0.7000
  1   -613.3622751649  -0.044549701383 0.05142182  0.00263661  0.0861661 0.7000
                               ***Turning on DIIS***
  2   -613.3879146707  -0.025639505797 0.10219762  0.00572091  0.0473239 0.0000
  3   -613.4338946153  -0.045979944619 0.03437476  0.00149257  0.0285588 0.0000
  4   -613.4386403611  -0.004745745762 0.01107010  0.00054379  0.0057680 0.0000
  5   -613.4391819138  -0.000541552696 0.00697927  0.00040547  0.0050764 0.0000
  6   -613.4395257490  -0.000343835264 0.00794628  0.00043699  0.0035626 0.0000
  7   -613.4398129997  -0.000287250606 0.00593109  0.00032904  0.0030601 0.0000
  8   -613.4399902909  -0.000177291288 0.00589084  0.00034702  0.0020385 0.0000
                      *** Initiating the SOSCF procedure ***
                           *** Shutting down DIIS ***
                      *** Re-Reading the Fockian *** 
                      *** Removing any level shift *** 
ITER      Energy       Delta-E        Grad      Rot      Max-DP    RMS-DP
  9   -613.44011786  -0.0001275674  0.003125  0.003125  0.004213  0.000227
               *** Restarting incremental Fock matrix formation ***
 10   -613.44015613  -0.0000382713  0.001192  0.004470  0.002326  0.000132
 11   -613.44018454  -0.0000284074  0.000979  0.017866  0.010008  0.000491
 12   -613.44022961  -0.0000450740  0.000286  0.000450  0.002098  0.000080
 13   -613.44023250  -0.0000028888  0.000183  0.000654  0.000644  0.000032
 14   -613.44023352  -0.0000010182  0.000109  0.000413  0.000327  0.000020
 15   -613.44023378  -0.0000002662  0.000032  0.000299  0.000284  0.000013
 16   -613.44023387  -0.0000000814  0.000016  0.000129  0.000111  0.000007
 17   -613.44023388  -0.0000000154  0.000010  0.000039  0.000071  0.000002
 18   -613.44023388  -0.0000000020  0.000006  0.000030  0.000026  0.000001
                  ***Gradient check signals convergence***
              ***Rediagonalizing the Fockian in SOSCF/NRSCF***

               *****************************************************
               *                     SUCCESS                       *
               *           SCF CONVERGED AFTER  19 CYCLES          *
               *****************************************************

Old exchange energy                            =    -13.748689219 Eh
New exchange energy                            =    -13.748717489 Eh
Exchange energy change after final integration =     -0.000028271 Eh
Total energy after final integration           =   -613.440262153 Eh
Final COS-X integration done in                =     0.660 sec

----------------
TOTAL SCF ENERGY
----------------

Total Energy       :         -613.44026215 Eh          -16692.55817 eV

Components:
Nuclear Repulsion  :          221.44603650 Eh            6025.85300 eV
Electronic Energy  :         -834.88629866 Eh          -22718.41117 eV
One Electron Energy:        -1267.84020430 Eh          -34499.68589 eV
Two Electron Energy:          432.95390564 Eh           11781.27472 eV
Max COSX asymmetry :            0.00000072 Eh               0.00002 eV
CPCM Dielectric    :           -0.10525988 Eh              -2.86427 eV

Virial components:
Potential Energy   :        -1229.68748879 Eh          -33461.49772 eV
Kinetic Energy     :          616.24722663 Eh           16768.93955 eV
Virial Ratio       :            1.99544507


DFT components:
N(Alpha)           :       21.999993856325 electrons
N(Beta)            :       21.999993856325 electrons
N(Total)           :       43.999987712650 electrons
E(XC)              :      -37.881231953531 Eh       
DFET-embed. en.    :        0.000000000000 Eh       
CPCM Solvation Model Properties:
Surface-charge          :           -1.00508116
Charge-correction       :            0.00083982 Eh               0.02285 eV
Free-energy (cav+disp)  :  This term is not implemented in the current solvation scheme

---------------
SCF CONVERGENCE
---------------

  Last Energy change         ...    3.6221e-10  Tolerance :   1.0000e-08
  Last MAX-Density change    ...    4.4409e-15  Tolerance :   1.0000e-07
  Last RMS-Density change    ...    9.2231e-17  Tolerance :   5.0000e-09
  Last Orbital Gradient      ...    1.5757e-06  Tolerance :   1.0000e-05
  Last Orbital Rotation      ...    7.6147e-06  Tolerance :   1.0000e-05

             **** THE GBW FILE WAS UPDATED (cpcm_opt.gbw) ****
             **** DENSITY cpcm_opt.scfp WAS UPDATED ****
             **** ENERGY FILE WAS UPDATED (cpcm_opt.en.tmp) ****
             **** THE GBW FILE WAS UPDATED (cpcm_opt.gbw) ****
             **** DENSITY cpcm_opt.scfp WAS UPDATED ****
----------------
ORBITAL ENERGIES
----------------

  NO   OCC          E(Eh)            E(eV) 
   0   2.0000    -101.519549     -2762.4874 
   1   2.0000     -10.443283      -284.1762 
   2   2.0000     -10.422090      -283.5995 
   3   2.0000     -10.304902      -280.4106 
   4   2.0000     -10.301249      -280.3112 
   5   2.0000      -9.646692      -262.4998 
   6   2.0000      -7.415079      -201.7746 
   7   2.0000      -7.398003      -201.3099 
   8   2.0000      -7.393483      -201.1869 
   9   2.0000      -1.344034       -36.5730 
  10   2.0000      -0.976317       -26.5669 
  11   2.0000      -0.930005       -25.3067 
  12   2.0000      -0.828444       -22.5431 
  13   2.0000      -0.817530       -22.2461 
  14   2.0000      -0.799847       -21.7649 
  15   2.0000      -0.678221       -18.4553 
  16   2.0000      -0.649696       -17.6791 
  17   2.0000      -0.634264       -17.2592 
  18   2.0000      -0.456003       -12.4085 
  19   2.0000      -0.436436       -11.8760 
  20   2.0000      -0.409770       -11.1504 
  21   2.0000      -0.386803       -10.5255 
  22   0.0000      -0.120099        -3.2681 
  23   0.0000       0.088035         2.3956 
  24   0.0000       0.112932         3.0730 
  25   0.0000       0.145054         3.9471 
  26   0.0000       0.172286         4.6881 
  27   0.0000       0.185178         5.0389 
  28   0.0000       0.209154         5.6914 
  29   0.0000       0.220551         6.0015 
  30   0.0000       0.249650         6.7933 
  31   0.0000       0.313209         8.5228 
  32   0.0000       0.380618        10.3571 
  33   0.0000       0.401842        10.9347 
  34   0.0000       0.426180        11.5969 
  35   0.0000       0.483567        13.1585 
  36   0.0000       0.523179        14.2364 
  37   0.0000       0.539960        14.6931 
  38   0.0000       0.567593        15.4450 
  39   0.0000       0.581329        15.8188 
  40   0.0000       0.612840        16.6762 
  41   0.0000       0.619321        16.8526 
  42   0.0000       0.628941        17.1144 
  43   0.0000       0.696281        18.9468 
  44   0.0000       0.702830        19.1250 
  45   0.0000       0.737248        20.0615 
  46   0.0000       0.755337        20.5538 
  47   0.0000       0.779039        21.1987 
  48   0.0000       0.807120        21.9629 
  49   0.0000       0.842541        22.9267 
  50   0.0000       0.880804        23.9679 
  51   0.0000       0.902552        24.5597 
  52   0.0000       0.923877        25.1400 
  53   0.0000       0.940489        25.5920 
  54   0.0000       0.967175        26.3182 
  55   0.0000       1.040888        28.3240 
  56   0.0000       1.095475        29.8094 
  57   0.0000       1.188556        32.3423 
  58   0.0000       1.242636        33.8139 
  59   0.0000       1.302857        35.4525 
  60   0.0000       1.341508        36.5043 
  61   0.0000       1.395487        37.9731 
  62   0.0000       1.501145        40.8482 
  63   0.0000       1.519528        41.3485 
  64   0.0000       1.582411        43.0596 
  65   0.0000       1.596530        43.4438 
  66   0.0000       1.612170        43.8694 
  67   0.0000       1.656874        45.0858 
  68   0.0000       1.720953        46.8295 
  69   0.0000       1.753615        47.7183 
  70   0.0000       1.835454        49.9452 
  71   0.0000       1.880809        51.1794 
  72   0.0000       1.922441        52.3123 
  73   0.0000       1.928698        52.4825 
  74   0.0000       1.985492        54.0280 
  75   0.0000       2.004830        54.5542 
  76   0.0000       2.054157        55.8965 
  77   0.0000       2.099596        57.1329 
  78   0.0000       2.148241        58.4566 
  79   0.0000       2.232322        60.7446 
  80   0.0000       2.306140        62.7533 
  81   0.0000       2.341272        63.7093 
  82   0.0000       2.407036        65.4988 
  83   0.0000       2.500875        68.0523 
  84   0.0000       2.578885        70.1750 
  85   0.0000       2.709828        73.7382 
  86   0.0000       2.860907        77.8492 
  87   0.0000       2.926645        79.6381 
  88   0.0000       2.970405        80.8288 
  89   0.0000       3.076587        83.7182 
  90   0.0000       3.114058        84.7378 
  91   0.0000       3.163497        86.0831 
  92   0.0000       3.950511       107.4989 
  93   0.0000       4.064141       110.5909 

                    ********************************
                    * MULLIKEN POPULATION ANALYSIS *
                    ********************************

-----------------------
MULLIKEN ATOMIC CHARGES
-----------------------
   0 C :    0.557831
   1 C :   -0.081424
   2 C :    0.317341
   3 C :   -0.455342
   4 H :    0.202237
   5 Cl:    0.319481
   6 H :    0.143039
   7 H :    0.083381
   8 H :   -0.086544
Sum of atomic charges:    1.0000000

--------------------------------
MULLIKEN REDUCED ORBITAL CHARGES
--------------------------------
  0 C s       :     3.121727  s :     3.121727
      pz      :     0.935879  p :     2.293341
      px      :     0.456936
      py      :     0.900526
      dz2     :     0.005174  d :     0.027101
      dxz     :     0.002026
      dyz     :     0.008468
      dx2y2   :     0.005643
      dxy     :     0.005791
  1 C s       :     2.837638  s :     2.837638
      pz      :     1.016572  p :     3.094287
      px      :     1.148845
      py      :     0.928870
      dz2     :     0.038463  d :     0.149500
      dxz     :     0.031210
      dyz     :     0.033314
      dx2y2   :     0.028072
      dxy     :     0.018441
  2 C s       :     2.982746  s :     2.982746
      pz      :     0.765131  p :     2.668320
      px      :     0.938072
      py      :     0.965117
      dz2     :     0.011966  d :     0.031593
      dxz     :     0.006517
      dyz     :     0.005762
      dx2y2   :     0.004486
      dxy     :     0.002861
  3 C s       :     3.716210  s :     3.716210
      pz      :     0.888133  p :     2.713213
      px      :     0.920035
      py      :     0.905045
      dz2     :     0.008056  d :     0.025919
      dxz     :     0.006021
      dyz     :     0.006066
      dx2y2   :     0.003132
      dxy     :     0.002645
  4 H s       :     0.768943  s :     0.768943
      pz      :     0.016503  p :     0.028820
      px      :     0.007291
      py      :     0.005027
  5 Cls       :     5.833513  s :     5.833513
      pz      :     3.320484  p :    10.673911
      px      :     3.725054
      py      :     3.628374
      dz2     :     0.050119  d :     0.173095
      dxz     :     0.038777
      dyz     :     0.037433
      dx2y2   :     0.033449
      dxy     :     0.013317
  6 H s       :     0.831201  s :     0.831201
      pz      :     0.003152  p :     0.025760
      px      :     0.017943
      py      :     0.004665
  7 H s       :     0.888321  s :     0.888321
      pz      :     0.013982  p :     0.028298
      px      :     0.007763
      py      :     0.006552
  8 H s       :     1.046150  s :     1.046150
      pz      :     0.014611  p :     0.040394
      px      :     0.004679
      py      :     0.021104


                     *******************************
                     * LOEWDIN POPULATION ANALYSIS *
                     *******************************

----------------------
LOEWDIN ATOMIC CHARGES
----------------------
   0 C :    0.529974
   1 C :   -0.489507
   2 C :   -0.090841
   3 C :    0.022013
   4 H :    0.106348
   5 Cl:    0.813007
   6 H :    0.075966
   7 H :    0.062569
   8 H :   -0.029529

-------------------------------
LOEWDIN REDUCED ORBITAL CHARGES
-------------------------------
  0 C s       :     2.880742  s :     2.880742
      pz      :     0.971037  p :     2.519896
      px      :     0.484792
      py      :     1.064067
      dz2     :     0.013798  d :     0.069388
      dxz     :     0.006072
      dyz     :     0.020977
      dx2y2   :     0.017332
      dxy     :     0.011210
  1 C s       :     2.759607  s :     2.759607
      pz      :     1.196456  p :     3.338932
      px      :     1.113863
      py      :     1.028613
      dz2     :     0.109977  d :     0.390967
      dxz     :     0.078006
      dyz     :     0.077027
      dx2y2   :     0.086734
      dxy     :     0.039223
  2 C s       :     2.908041  s :     2.908041
      pz      :     1.043428  p :     3.104251
      px      :     1.028560
      py      :     1.032263
      dz2     :     0.030394  d :     0.078549
      dxz     :     0.016821
      dyz     :     0.015268
      dx2y2   :     0.009126
      dxy     :     0.006941
  3 C s       :     2.941041  s :     2.941041
      pz      :     1.048225  p :     2.977111
      px      :     0.979751
      py      :     0.949135
      dz2     :     0.018009  d :     0.059836
      dxz     :     0.015056
      dyz     :     0.014298
      dx2y2   :     0.006453
      dxy     :     0.006020
  4 H s       :     0.817137  s :     0.817137
      pz      :     0.045709  p :     0.076516
      px      :     0.018063
      py      :     0.012744
  5 Cls       :     5.306774  s :     5.306774
      pz      :     3.440219  p :    10.594976
      px      :     3.656187
      py      :     3.498571
      dz2     :     0.082170  d :     0.285243
      dxz     :     0.067665
      dyz     :     0.064167
      dx2y2   :     0.049435
      dxy     :     0.021807
  6 H s       :     0.839718  s :     0.839718
      pz      :     0.016654  p :     0.084316
      px      :     0.051846
      py      :     0.015816
  7 H s       :     0.856418  s :     0.856418
      pz      :     0.040042  p :     0.081013
      px      :     0.022235
      py      :     0.018736
  8 H s       :     0.899213  s :     0.899213
      pz      :     0.046378  p :     0.130316
      px      :     0.016963
      py      :     0.066975


                      *****************************
                      * MAYER POPULATION ANALYSIS *
                      *****************************

  NA   - Mulliken gross atomic population
  ZA   - Total nuclear charge
  QA   - Mulliken gross atomic charge
  VA   - Mayer's total valence
  BVA  - Mayer's bonded valence
  FA   - Mayer's free valence

  ATOM       NA         ZA         QA         VA         BVA        FA
  0 C      5.4422     6.0000     0.5578     3.3385     3.3385    -0.0000
  1 C      6.0814     6.0000    -0.0814     3.7402     3.7402    -0.0000
  2 C      5.6827     6.0000     0.3173     3.2173     3.2173    -0.0000
  3 C      6.4553     6.0000    -0.4553     3.6470     3.6470    -0.0000
  4 H      0.7978     1.0000     0.2022     0.9538     0.9538    -0.0000
  5 Cl    16.6805    17.0000     0.3195     1.9078     1.9078    -0.0000
  6 H      0.8570     1.0000     0.1430     0.9792     0.9792     0.0000
  7 H      0.9166     1.0000     0.0834     0.9888     0.9888     0.0000
  8 H      1.0865     1.0000    -0.0865     1.0249     1.0249     0.0000

  Mayer bond orders larger than 0.100000
B(  0-C ,  1-C ) :   0.9633 B(  0-C ,  4-H ) :   0.9424 B(  0-C ,  5-Cl) :   0.4070 
B(  0-C ,  8-H ) :   1.0051 B(  1-C ,  2-C ) :   0.7109 B(  1-C ,  5-Cl) :   1.2801 
B(  1-C ,  6-H ) :   0.8233 B(  2-C ,  3-C ) :   2.5586 B(  2-C ,  7-H ) :  -0.1069 
B(  3-C ,  7-H ) :   1.0920 B(  5-Cl,  6-H ) :   0.1191 

-------
TIMINGS
-------

Total SCF time: 0 days 0 hours 0 min 10 sec 

Total time                  ....      10.793 sec
Sum of individual times     ....      10.417 sec  ( 96.5%)

Fock matrix formation       ....       9.790 sec  ( 90.7%)
  Split-RI-J                ....       0.876 sec  (  8.9% of F)
  Chain of spheres X        ....       5.198 sec  ( 53.1% of F)
  XC integration            ....       2.082 sec  ( 21.3% of F)
    Basis function eval.    ....       0.363 sec  ( 17.4% of XC)
    Density eval.           ....       0.181 sec  (  8.7% of XC)
    XC-Functional eval.     ....       0.215 sec  ( 10.3% of XC)
    XC-Potential eval.      ....       0.220 sec  ( 10.5% of XC)
Diagonalization             ....       0.038 sec  (  0.4%)
Density matrix formation    ....       0.006 sec  (  0.1%)
Population analysis         ....       0.008 sec  (  0.1%)
Initial guess               ....       0.039 sec  (  0.4%)
Orbital Transformation      ....       0.000 sec  (  0.0%)
Orbital Orthonormalization  ....       0.000 sec  (  0.0%)
DIIS solution               ....       0.045 sec  (  0.4%)
SOSCF solution              ....       0.031 sec  (  0.3%)
Grid generation             ....       0.459 sec  (  4.3%)

Maximum memory used throughout the entire SCF-calculation: 46.7 MB


-------------------------------------------------------------------------------
                          DFT DISPERSION CORRECTION                            
                                                                               
                                 DFTD4 V2.5                                    
-------------------------------------------------------------------------------
The WB97X functional is recognized
Active option DFTDOPT                   ...         5   

Starting D4
-------------------------   ----------------
Dispersion correction           -0.000767215
-------------------------   ----------------


-------------------------   --------------------
FINAL SINGLE POINT ENERGY      -613.441029367766
-------------------------   --------------------



           ************************************************************
           *        Program running with 10 parallel MPI-processes    *
           *              working on a common directory               *
           ************************************************************
------------------------------------------------------------------------------
                         ORCA SCF GRADIENT CALCULATION
------------------------------------------------------------------------------

 ... reading COSX grid (gridx3)
Gradient of the Kohn-Sham DFT energy:
Kohn-Sham wavefunction type      ... RKS
Hartree-Fock exchange scaling    ...    0.158
Number of operators              ...    1
Number of atoms                  ...    9
Basis set dimensions             ...   94
Integral neglect threshold       ... 2.5e-11
Integral primitive cutoff        ... 2.5e-12
SHARK Integral package           ... ON

Nuc. rep. gradient       (SHARK) ... done (  0.0 sec)
HCore & Overlap gradient (SHARK) ... done (  0.0 sec)
RI-J gradient            (SHARK) ... done (  0.1 sec)
COSX-gradient                    ... done (  0.7 sec)
Exchange-correlation gradient    ... done
Dispersion correction            ... Starting D4
Starting D4
Starting D4
Starting D4
Starting D4
Starting D4
Starting D4
Starting D4
Starting D4
Starting D4


------------------- 
Dispersion Gradient 
------------------- 
   1  :   -0.000000871   -0.000007338    0.000012256
   2  :   -0.000002613    0.000001648    0.000002123
   3  :    0.000001218   -0.000001708   -0.000003282
   4  :    0.000005700   -0.000007781   -0.000011710
   5  :   -0.000000134    0.000002108    0.000001451
   6  :   -0.000003098    0.000013498    0.000004872
   7  :   -0.000003219   -0.000000471   -0.000000121
   8  :    0.000002838   -0.000002949   -0.000005678
   9  :    0.000000180    0.000002994    0.000000088

  |G| =    0.000016619

done

------------------
CARTESIAN GRADIENT
------------------

   1   C   :    0.201845778    0.355240233   -0.246862420
   2   C   :    0.923346711   -0.666293014    1.724195162
   3   C   :    0.043449901   -0.031029484    0.031878009
   4   C   :   -0.018709575    0.014879200    0.027039743
   5   H   :   -0.001402197   -0.007048700    0.000313607
   6   Cl  :   -1.020826830    0.717971170   -1.860348903
   7   H   :    0.051313680   -0.023240114    0.057198696
   8   H   :   -0.010913551    0.009093834    0.016092878
   9   H   :   -0.168162955   -0.369513327    0.250470895

Difference to translation invariance:
           :   -0.0000590372    0.0000597997   -0.0000223330

Difference to rotation invariance:
           :   -0.0016758870    0.0015579851   -0.0004138151

Norm of the cartesian gradient     ...    3.1233623590
RMS gradient                       ...    0.6010913663
MAX gradient                       ...    1.8603489031

-------
TIMINGS
-------

Total SCF gradient time            ...        1.461 sec

One electron gradient       ....       0.009 sec  (  0.6%)
RI-J Coulomb gradient       ....       0.106 sec  (  7.2%)
COSX gradient               ....       0.688 sec  ( 47.1%)
XC gradient                 ....       0.219 sec  ( 15.0%)
CPCM gradient               ....       0.076 sec  (  5.2%)
   A-Matrix (El+Nuc)        ....       0.015 sec  (  1.0%)
   Potential                ....       0.061 sec  (  4.2%)

Maximum memory used throughout the entire SCFGRAD-calculation: 35.9 MB
------------------------------------------------------------------------------
                         ORCA GEOMETRY RELAXATION STEP
------------------------------------------------------------------------------

Reading the OPT-File                    .... done
Getting information on internals        .... done
Copying old internal coords+grads       .... done
Making the new internal coordinates     .... (new redundants).... done
Validating the new internal coordinates .... (new redundants).... done
Calculating the B-matrix                .... done
Calculating the G,G- and P matrices     .... done
Transforming gradient to internals      .... done
Projecting the internal gradient        .... done
Number of atoms                         ....   9
Number of internal coordinates          ....  51
Current Energy                          ....  -613.441029368 Eh
Current gradient norm                   ....     3.123362359 Eh/bohr
Maximum allowed component of the step   ....  0.300
Current trust radius                    ....  0.300
Evaluating the initial hessian          ....  (Almloef) done
Projecting the Hessian                  .... done
Forming the augmented Hessian           .... done
Diagonalizing the augmented Hessian     .... done
Last element of RFO vector              ....  0.872534251
Lowest eigenvalues of augmented Hessian:
 -0.927698422  0.001696678  0.015047450  0.021021426  0.136329057
Length of the computed step             ....  0.559924090
Warning: the length of the step is outside the trust region - taking restricted step instead
The input lambda is                     ....    -0.927698
   iter:   1  x=   -1.898440  g=    0.230252 f(x)=     0.223515
   iter:   2  x=   -2.843691  g=    0.089064 f(x)=     0.084188
   iter:   3  x=   -3.354112  g=    0.045954 f(x)=     0.023456
   iter:   4  x=   -3.449225  g=    0.034065 f(x)=     0.003240
   iter:   5  x=   -3.451814  g=    0.032327 f(x)=     0.000084
   iter:   6  x=   -3.451815  g=    0.032281 f(x)=     0.000000
   iter:   7  x=   -3.451815  g=    0.032281 f(x)=     0.000000
   iter:   8  x=   -3.451815  g=    0.032281 f(x)=     0.000000
The output lambda is                    ....    -3.451815 (8 iterations)
The final length of the internal step   ....  0.300000000
Converting the step to cartesian space:
 Initial RMS(Int)=    0.0420084025
Transforming coordinates:
 Iter   0:  RMS(Cart)=    0.0409883057 RMS(Int)=    0.8781460135
 Iter   1:  RMS(Cart)=    0.0011797955 RMS(Int)=    0.0007600005
 Iter   2:  RMS(Cart)=    0.0000404698 RMS(Int)=    0.0000433209
 Iter   3:  RMS(Cart)=    0.0000026113 RMS(Int)=    0.0000035244
 Iter   4:  RMS(Cart)=    0.0000002300 RMS(Int)=    0.0000003353
 Iter   5:  RMS(Cart)=    0.0000000238 RMS(Int)=    0.0000000340
done
Storing new coordinates                 .... done

                                .--------------------.
          ----------------------|Geometry convergence|-------------------------
          Item                value                   Tolerance       Converged
          ---------------------------------------------------------------------
          RMS gradient        0.2378192553            0.0001000000      NO
          MAX gradient        1.1975013110            0.0003000000      NO
          RMS step            0.0420084025            0.0020000000      NO
          MAX step            0.2050422758            0.0040000000      NO
          ........................................................
          Max(Bonds)      0.1085      Max(Angles)    2.79
          Max(Dihed)        1.82      Max(Improp)    0.00
          ---------------------------------------------------------------------

The optimization has not yet converged - more geometry cycles are needed


    ---------------------------------------------------------------------------
                         Redundant Internal Coordinates
                            (Angstroem and degrees)

        Definition                    Value    dE/dq     Step     New-Value
    ----------------------------------------------------------------------------
     1. B(C   1,C   0)                1.4963  0.252046 -0.0207    1.4756   
     2. B(C   2,C   1)                1.4690  0.273285 -0.0220    1.4470   
     3. B(C   3,C   2)                1.1814 -0.057302  0.0063    1.1877   
     4. B(H   4,C   0)                1.0965 -0.000194  0.0000    1.0965   
     5. B(Cl  5,C   1)                1.0903 -1.197501  0.1085    1.1988   
     6. B(Cl  5,C   2)                2.1059 -0.487581  0.0477    2.1536   
     7. B(Cl  5,C   0)                2.1037 -0.474325  0.0446    2.1483   
     8. B(H   6,C   1)                1.0902 -0.036939  0.0051    1.0954   
     9. B(H   7,C   3)                1.0535 -0.021358  0.0029    1.0564   
    10. B(H   8,C   0)                0.8123 -0.475769  0.0566    0.8689   
    11. A(C   1,C   0,H   4)          104.14 -0.143475    1.41    105.55   
    12. A(Cl  5,C   0,H   8)          146.73  0.165272   -1.62    145.10   
    13. A(C   1,C   0,Cl  5)           29.57 -0.286539    2.79     32.35   
    14. A(H   4,C   0,Cl  5)           87.03  0.020231   -0.17     86.85   
    15. A(H   4,C   0,H   8)          116.74 -0.083423    0.78    117.52   
    16. A(C   1,C   0,H   8)          139.12  0.226898   -2.20    136.92   
    17. A(Cl  5,C   1,H   6)          104.95 -0.075893    0.92    105.88   
    18. A(C   0,C   1,H   6)          107.84 -0.000051   -0.08    107.76   
    19. A(C   2,C   1,Cl  5)          109.86  0.131285   -1.20    108.66   
    20. A(C   0,C   1,Cl  5)          107.81  0.134472   -1.34    106.48   
    21. A(C   0,C   1,C   2)          115.93 -0.170775    1.61    117.53   
    22. A(C   2,C   1,H   6)          109.86 -0.011692    0.04    109.90   
    23. A(C   3,C   2,Cl  5)          150.48  0.015091   -0.23    150.25   
    24. A(C   1,C   2,Cl  5)           29.14 -0.282158    2.70     31.84   
    25. L(C   2,C   3,H   7,Cl  5, 1) 180.23  0.003841   -0.06    180.17   
    26. L(C   2,C   3,H   7,Cl  5, 2) 181.08  0.000135   -0.00    181.08   
    27. A(C   0,Cl  5,C   1)           42.62  0.152067   -1.45     41.17   
    28. A(C   1,Cl  5,C   2)           41.00  0.150873   -1.50     39.50   
    29. A(C   0,Cl  5,C   2)           73.33  0.240041   -2.35     70.98   
    30. D(C   2,C   1,C   0,H   4)    179.97 -0.115841    1.06    181.04   
    31. D(H   6,C   1,C   0,H   4)     56.38  0.020759   -0.07     56.31   
    32. D(Cl  5,C   1,C   0,H   8)    123.54 -0.031537    0.26    123.80   
    33. D(Cl  5,C   1,C   0,H   4)    -56.46  0.043410   -0.45    -56.90   
    34. D(H   6,C   1,C   0,Cl  5)    112.84 -0.022652    0.38    113.22   
    35. D(C   2,C   1,C   0,H   8)     -0.03 -0.190788    1.77      1.74   
    36. D(C   2,C   1,C   0,Cl  5)   -123.57 -0.159251    1.51   -122.06   
    37. D(H   6,C   1,C   0,H   8)   -123.62 -0.054188    0.64   -122.98   
    38. D(Cl  5,C   2,C   1,C   0)    122.49  0.159307   -1.57    120.93   
    39. D(Cl  5,C   2,C   1,H   6)   -114.97  0.023669   -0.46   -115.43   
    40. D(C   2,Cl  5,C   0,H   4)    159.04  0.073620   -0.73    158.31   
    41. D(C   2,Cl  5,C   0,C   1)     33.07  0.082324   -0.80     32.27   
    42. D(C   1,Cl  5,C   0,H   8)    -96.12  0.099261   -1.02    -97.14   
    43. D(C   2,Cl  5,C   0,H   8)    -63.05  0.181585   -1.82    -64.88   
    44. D(C   1,Cl  5,C   0,H   4)    125.97 -0.008704    0.07    126.04   
    45. D(C   0,Cl  5,C   2,C   3)    146.93 -0.040454    0.37    147.30   
    46. D(C   0,Cl  5,C   2,C   1)    -34.28 -0.080510    0.74    -33.54   
    47. D(C   2,Cl  5,C   1,H   6)    118.06  0.009423   -0.03    118.02   
    48. D(C   2,Cl  5,C   1,C   0)   -127.18  0.032640   -0.28   -127.46   
    49. D(C   0,Cl  5,C   1,H   6)   -114.77 -0.023217    0.25   -114.52   
    50. D(C   1,Cl  5,C   2,C   3)   -178.80  0.040056   -0.37   -179.16   
    51. D(C   0,Cl  5,C   1,C   2)    127.18 -0.032640    0.28    127.46   
    ----------------------------------------------------------------------------

         *************************************************************
         *                GEOMETRY OPTIMIZATION CYCLE   2            *
         *************************************************************
---------------------------------
CARTESIAN COORDINATES (ANGSTROEM)
---------------------------------
  C     -0.046386    1.536955    0.050759
  C      0.021428    0.068153   -0.069361
  C      0.710766   -0.477594   -1.218091
  C      1.243770   -0.911660   -2.186649
  H     -0.585667    1.730520    0.985689
  Cl     0.559130   -0.329713    0.925383
  H     -1.002973   -0.317855   -0.031324
  H      1.719820   -1.291001   -3.050045
  H      0.213285    2.224820   -0.412279

----------------------------
CARTESIAN COORDINATES (A.U.)
----------------------------
  NO LB      ZA    FRAG     MASS         X           Y           Z
   0 C     6.0000    0    12.011   -0.087656    2.904425    0.095921
   1 C     6.0000    0    12.011    0.040494    0.128790   -0.131073
   2 C     6.0000    0    12.011    1.343154   -0.902521   -2.301858
   3 C     6.0000    0    12.011    2.350384   -1.722788   -4.132168
   4 H     1.0000    0     1.008   -1.106751    3.270209    1.862682
   5 Cl   17.0000    0    35.453    1.056602   -0.623068    1.748721
   6 H     1.0000    0     1.008   -1.895345   -0.600659   -0.059195
   7 H     1.0000    0     1.008    3.249989   -2.439638   -5.763750
   8 H     1.0000    0     1.008    0.403050    4.204300   -0.779095

--------------------------------
INTERNAL COORDINATES (ANGSTROEM)
--------------------------------
 C      0   0   0     0.000000000000     0.00000000     0.00000000
 C      1   0   0     1.475265394613     0.00000000     0.00000000
 C      2   1   0     1.446584506256   117.52755449     0.00000000
 C      3   2   1     1.187691713299   177.88120550   289.53039739
 H      1   2   3     1.096533378528   105.53227132   181.04637589
 Cl     2   1   3     1.198722615244   106.46956256   122.03065328
 H      2   1   3     1.095375860206   107.76043834   235.25963820
 H      4   3   2     1.056397817272   179.60526844    75.86334374
 H      1   2   3     0.868902378578   136.97466225     1.73417950

---------------------------
INTERNAL COORDINATES (A.U.)
---------------------------
 C      0   0   0     0.000000000000     0.00000000     0.00000000
 C      1   0   0     2.787847570670     0.00000000     0.00000000
 C      2   1   0     2.733648546397   117.52755449     0.00000000
 C      3   2   1     2.244412069662   177.88120550   289.53039739
 H      1   2   3     2.072147782120   105.53227132   181.04637589
 Cl     2   1   3     2.265257453349   106.46956256   122.03065328
 H      2   1   3     2.069960389497   107.76043834   235.25963820
 H      4   3   2     1.996302563117   179.60526844    75.86334374
 H      1   2   3     1.641987532625   136.97466225     1.73417950



           ************************************************************
           *        Program running with 10 parallel MPI-processes    *
           *              working on a common directory               *
           ************************************************************
------------------------------------------------------------------------------
                   ___                                                        
                  /   \      - P O W E R E D   B Y -                         
                 /     \                                                     
                 |  |  |   _    _      __       _____    __    __             
                 |  |  |  | |  | |    /  \     |  _  \  |  |  /  |          
                  \  \/   | |  | |   /    \    | | | |  |  | /  /          
                 / \  \   | |__| |  /  /\  \   | |_| |  |  |/  /          
                |  |  |   |  __  | /  /__\  \  |    /   |      \           
                |  |  |   | |  | | |   __   |  |    \   |  |\   \          
                \     /   | |  | | |  |  |  |  | |\  \  |  | \   \       
                 \___/    |_|  |_| |__|  |__|  |_| \__\ |__|  \__/        
                                                                              
                      - O R C A' S   B I G   F R I E N D -                    
                                      &                                       
                       - I N T E G R A L  F E E D E R -                       
                                                                              
 v1 FN, 2020, v2 2021                                                         
------------------------------------------------------------------------------


Reading SHARK input file cpcm_opt.SHARKINP.tmp ... ok
----------------------
SHARK INTEGRAL PACKAGE
----------------------

Number of atoms                             ...      9
Number of basis functions                   ...     94
Number of shells                            ...     44
Maximum angular momentum                    ...      2
Integral batch strategy                     ... SHARK/LIBINT Hybrid
RI-J (if used) integral strategy            ... SPLIT-RIJ (Revised 2003 algorithm where possible)
Printlevel                                  ...      1
Contraction scheme used                     ... SEGMENTED contraction
Coulomb Range Separation                    ... NOT USED
Exchange Range Separation                   ... Long Range
   Mu parameter                             ...  0.300000
   Scaling (regular/separated)              ...  0.157706  0.842294
Finite Nucleus Model                        ... NOT USED
Auxiliary Coulomb fitting basis             ... AVAILABLE
   # of basis functions in Aux-J            ...    291
   # of shells in Aux-J                     ...     97
   Maximum angular momentum in Aux-J        ...      4
Auxiliary J/K fitting basis                 ... NOT available
Auxiliary Correlation fitting basis         ... NOT available
Auxiliary 'external' fitting basis          ... NOT available
Integral threshold                          ...     2.500000e-11
Primitive cut-off                           ...     2.500000e-12
Primitive pair pre-selection threshold      ...     2.500000e-12

Calculating pre-screening integrals         ... done (  0.0 sec) Dimension = 44
Organizing shell pair data                  ... done (  0.0 sec)
Shell pair information
Total number of shell pairs                 ...       990
Shell pairs after pre-screening             ...       966
Total number of primitive shell pairs       ...      3828
Primitive shell pairs kept                  ...      2923
          la=0 lb=0:    290 shell pairs
          la=1 lb=0:    351 shell pairs
          la=1 lb=1:    117 shell pairs
          la=2 lb=0:    118 shell pairs
          la=2 lb=1:     75 shell pairs
          la=2 lb=2:     15 shell pairs

Calculating one electron integrals          ... done (  0.0 sec)
Calculating RI/J V-Matrix + Cholesky decomp.... done (  0.0 sec)
Calculating Nuclear repulsion               ... done (  0.0 sec) ENN=    215.266180817027 Eh

SHARK setup successfully completed in   0.2 seconds

Maximum memory used throughout the entire GTOINT-calculation: 9.7 MB


           ************************************************************
           *        Program running with 10 parallel MPI-processes    *
           *              working on a common directory               *
           ************************************************************

Diagonalization of the overlap matrix:
Smallest eigenvalue                        ... 5.688e-04
Time for diagonalization                   ...    0.003 sec
Threshold for overlap eigenvalues          ... 1.000e-08
Number of eigenvalues below threshold      ... 0
Time for construction of square roots      ...    0.003 sec
Total time needed                          ...    0.006 sec

-------------------
DFT GRID GENERATION
-------------------

General Integration Accuracy     IntAcc      ... 4.388
Radial Grid Type                 RadialGrid  ... OptM3 with GC (2021)
Angular Grid (max. ang.)         AngularGrid ... 4 (Lebedev-302)
Angular grid pruning method      GridPruning ... 4 (adaptive)
Weight generation scheme         WeightScheme... Becke
Basis function cutoff            BFCut       ... 1.0000e-11
Integration weight cutoff        WCut        ... 1.0000e-14
Angular grids for H and He will be reduced by one unit
Partially contracted basis set               ... off
Rotationally invariant grid construction     ... off

Total number of grid points                  ...    44543
Total number of batches                      ...      700
Average number of points per batch           ...       63
Average number of grid points per atom       ...     4949
Time for grid setup =    0.212 sec

--------------------
COSX GRID GENERATION
--------------------

GRIDX 1
-------
General Integration Accuracy     IntAcc      ... 3.816
Radial Grid Type                 RadialGrid  ... OptM3 with GC (2021)
Angular Grid (max. ang.)         AngularGrid ... 1 (Lebedev-50)
Angular grid pruning method      GridPruning ... 4 (adaptive)
Weight generation scheme         WeightScheme... Becke
Basis function cutoff            BFCut       ... 1.0000e-11
Integration weight cutoff        WCut        ... 1.0000e-14
Angular grids for H and He will be reduced by one unit
Partially contracted basis set               ... on
Rotationally invariant grid construction     ... off

Total number of grid points                  ...     5620
Total number of batches                      ...       93
Average number of points per batch           ...       60
Average number of grid points per atom       ...      624
UseSFitting                                  ... on

GRIDX 2
-------
General Integration Accuracy     IntAcc      ... 4.020
Radial Grid Type                 RadialGrid  ... OptM3 with GC (2021)
Angular Grid (max. ang.)         AngularGrid ... 2 (Lebedev-110)
Angular grid pruning method      GridPruning ... 4 (adaptive)
Weight generation scheme         WeightScheme... Becke
Basis function cutoff            BFCut       ... 1.0000e-11
Integration weight cutoff        WCut        ... 1.0000e-14
Angular grids for H and He will be reduced by one unit
Partially contracted basis set               ... on
Rotationally invariant grid construction     ... off

Total number of grid points                  ...    12439
Total number of batches                      ...      200
Average number of points per batch           ...       62
Average number of grid points per atom       ...     1382
UseSFitting                                  ... on

GRIDX 3
-------
General Integration Accuracy     IntAcc      ... 4.338
Radial Grid Type                 RadialGrid  ... OptM3 with GC (2021)
Angular Grid (max. ang.)         AngularGrid ... 3 (Lebedev-194)
Angular grid pruning method      GridPruning ... 4 (adaptive)
Weight generation scheme         WeightScheme... Becke
Basis function cutoff            BFCut       ... 1.0000e-11
Integration weight cutoff        WCut        ... 1.0000e-14
Angular grids for H and He will be reduced by one unit
Partially contracted basis set               ... on
Rotationally invariant grid construction     ... off

Total number of grid points                  ...    28031
Total number of batches                      ...      443
Average number of points per batch           ...       63
Average number of grid points per atom       ...     3115
UseSFitting                                  ... on

Time for X-Grid setup             =    0.210 sec


--------------------
CPCM SOLVATION MODEL
--------------------
CPCM parameters:
  Epsilon                                         ...      80.4000
  Refrac                                          ...       1.3300
  Rsolv                                           ...       1.3000
  Surface type                                    ... GAUSSIAN VDW
  Epsilon function type                           ...         CPCM
Radii:
 Radius for C  used is    3.8550 Bohr (=   2.0400 Ang.)
 Radius for H  used is    2.4944 Bohr (=   1.3200 Ang.)
 Radius for Cl used is    3.9684 Bohr (=   2.1000 Ang.)
Calculating surface                               ...        done! (  0.0s)
GEPOL surface points                              ...          554
GEPOL Volume                                      ...     711.7065
GEPOL Surface-area                                ...     434.0429
Calculating surface distance matrix               ...        done! (  0.0s)
Performing Cholesky decomposition & store         ...        done! (  0.0s)
Overall time for CPCM initialization              ...                 0.0s
--------------
SCF ITERATIONS
--------------
ITER       Energy         Delta-E        Max-DP      RMS-DP      [F,P]     Damp
               ***  Starting incremental Fock matrix formation  ***
  0   -613.8228217320   0.000000000000 0.01912500  0.00096665  0.0674758 0.7000
  1   -613.8272429781  -0.004421246142 0.01507870  0.00079639  0.0472884 0.7000
                               ***Turning on DIIS***
  2   -613.8303864785  -0.003143500443 0.03538713  0.00198166  0.0331070 0.0000
  3   -613.8381972647  -0.007810786122 0.01658785  0.00051186  0.0063084 0.0000
                      *** Initiating the SOSCF procedure ***
                           *** Shutting down DIIS ***
                      *** Re-Reading the Fockian *** 
                      *** Removing any level shift *** 
ITER      Energy       Delta-E        Grad      Rot      Max-DP    RMS-DP
  4   -613.83859129  -0.0003940230  0.001464  0.001464  0.003617  0.000228
               *** Restarting incremental Fock matrix formation ***
  5   -613.83869405  -0.0001027669  0.001019  0.003291  0.002989  0.000184
  6   -613.83873582  -0.0000417704  0.000544  0.004755  0.003774  0.000250
  7   -613.83875172  -0.0000158969  0.000359  0.000553  0.001210  0.000061
  8   -613.83875629  -0.0000045658  0.000174  0.000193  0.000680  0.000037
  9   -613.83875705  -0.0000007596  0.000044  0.000235  0.000414  0.000020
 10   -613.83875721  -0.0000001617  0.000026  0.000178  0.000117  0.000007
[...]
Radii:
 Radius for C  used is    3.8550 Bohr (=   2.0400 Ang.)
 Radius for H  used is    2.4944 Bohr (=   1.3200 Ang.)
 Radius for Cl used is    3.9684 Bohr (=   2.1000 Ang.)
Calculating surface                               ...        done! (  0.0s)
GEPOL surface points                              ...          583
GEPOL Volume                                      ...     750.4200
GEPOL Surface-area                                ...     455.3446
Calculating surface distance matrix               ...        done! (  0.0s)
Performing Cholesky decomposition & store         ...        done! (  0.0s)
Overall time for CPCM initialization              ...                 0.0s
--------------
SCF ITERATIONS
--------------
ITER       Energy         Delta-E        Max-DP      RMS-DP      [F,P]     Damp
               ***  Starting incremental Fock matrix formation  ***
                      *** Initiating the SOSCF procedure ***
                      *** Re-Reading the Fockian *** 
                      *** Removing any level shift *** 
ITER      Energy       Delta-E        Grad      Rot      Max-DP    RMS-DP
  0   -614.39549073 -614.3954907281  0.000355  0.000355  0.001026  0.000038
               *** Restarting incremental Fock matrix formation ***
  1   -614.39549319  -0.0000024582  0.000079  0.000172  0.000370  0.000016
  2   -614.39549366  -0.0000004700  0.000031  0.000132  0.000196  0.000010
  3   -614.39549373  -0.0000000742  0.000012  0.000040  0.000033  0.000002
                 **** Energy Check signals convergence ****
              ***Rediagonalizing the Fockian in SOSCF/NRSCF***

               *****************************************************
               *                     SUCCESS                       *
               *           SCF CONVERGED AFTER   4 CYCLES          *
               *****************************************************

Old exchange energy                            =    -13.616612969 Eh
New exchange energy                            =    -13.616635944 Eh
Exchange energy change after final integration =     -0.000022975 Eh
Total energy after final integration           =   -614.395516708 Eh
Final COS-X integration done in                =     0.600 sec

----------------
TOTAL SCF ENERGY
----------------

Total Energy       :         -614.39551671 Eh          -16718.55196 eV

Components:
Nuclear Repulsion  :          189.84551240 Eh            5165.95902 eV
Electronic Energy  :         -804.24102911 Eh          -21884.51099 eV
One Electron Energy:        -1207.79297852 Eh          -32865.71781 eV
Two Electron Energy:          403.55194941 Eh           10981.20682 eV
Max COSX asymmetry :            0.00000201 Eh               0.00005 eV
CPCM Dielectric    :           -0.09342382 Eh              -2.54219 eV

Virial components:
Potential Energy   :        -1225.98830563 Eh          -33360.83783 eV
Kinetic Energy     :          611.59278892 Eh           16642.28586 eV
Virial Ratio       :            2.00458267


DFT components:
N(Alpha)           :       21.999996835181 electrons
N(Beta)            :       21.999996835181 electrons
N(Total)           :       43.999993670362 electrons
E(XC)              :      -37.322930827793 Eh       
DFET-embed. en.    :        0.000000000000 Eh       
CPCM Solvation Model Properties:
Surface-charge          :           -1.00541830
Charge-correction       :            0.00087994 Eh               0.02394 eV
Free-energy (cav+disp)  :  This term is not implemented in the current solvation scheme

---------------
SCF CONVERGENCE
---------------

  Last Energy change         ...   -3.2817e-09  Tolerance :   1.0000e-08
  Last MAX-Density change    ...    1.7764e-15  Tolerance :   1.0000e-07
  Last RMS-Density change    ...    6.1749e-17  Tolerance :   5.0000e-09
  Last Orbital Gradient      ...    4.7452e-06  Tolerance :   1.0000e-05
  Last Orbital Rotation      ...    1.4160e-05  Tolerance :   1.0000e-05

             **** THE GBW FILE WAS UPDATED (cpcm_opt.gbw) ****
             **** DENSITY cpcm_opt.scfp WAS UPDATED ****
             **** ENERGY FILE WAS UPDATED (cpcm_opt.en.tmp) ****
             **** THE GBW FILE WAS UPDATED (cpcm_opt.gbw) ****
             **** DENSITY cpcm_opt.scfp WAS UPDATED ****
----------------
ORBITAL ENERGIES
----------------

  NO   OCC          E(Eh)            E(eV) 
   0   2.0000    -101.577874     -2764.0745 
   1   2.0000     -10.444224      -284.2018 
   2   2.0000     -10.402134      -283.0565 
   3   2.0000     -10.345538      -281.5164 
   4   2.0000     -10.330316      -281.1022 
   5   2.0000      -9.649847      -262.5857 
   6   2.0000      -7.418387      -201.8646 
   7   2.0000      -7.410254      -201.6433 
   8   2.0000      -7.405157      -201.5046 
   9   2.0000      -1.127812       -30.6893 
  10   2.0000      -0.963321       -26.2133 
  11   2.0000      -0.897982       -24.4353 
  12   2.0000      -0.824881       -22.4462 
  13   2.0000      -0.716629       -19.5005 
  14   2.0000      -0.670585       -18.2475 
  15   2.0000      -0.654837       -17.8190 
  16   2.0000      -0.580760       -15.8033 
  17   2.0000      -0.577486       -15.7142 
  18   2.0000      -0.538838       -14.6625 
  19   2.0000      -0.487981       -13.2786 
  20   2.0000      -0.439003       -11.9459 
  21   2.0000      -0.432973       -11.7818 
  22   0.0000      -0.062430        -1.6988 
  23   0.0000       0.041877         1.1395 
  24   0.0000       0.076986         2.0949 
  25   0.0000       0.142253         3.8709 
  26   0.0000       0.169004         4.5988 
  27   0.0000       0.172785         4.7017 
  28   0.0000       0.191300         5.2055 
  29   0.0000       0.212030         5.7696 
  30   0.0000       0.284309         7.7364 
  31   0.0000       0.312115         8.4931 
  32   0.0000       0.334299         9.0967 
  33   0.0000       0.376409        10.2426 
  34   0.0000       0.464760        12.6468 
  35   0.0000       0.506372        13.7791 
  36   0.0000       0.517209        14.0740 
  37   0.0000       0.533476        14.5166 
  38   0.0000       0.567302        15.4371 
  39   0.0000       0.618932        16.8420 
  40   0.0000       0.642241        17.4763 
  41   0.0000       0.663925        18.0663 
  42   0.0000       0.676492        18.4083 
  43   0.0000       0.684091        18.6151 
  44   0.0000       0.705324        19.1928 
  45   0.0000       0.706686        19.2299 
  46   0.0000       0.725481        19.7413 
  47   0.0000       0.741991        20.1906 
  48   0.0000       0.747986        20.3537 
  49   0.0000       0.779486        21.2109 
  50   0.0000       0.788614        21.4593 
  51   0.0000       0.816224        22.2106 
  52   0.0000       0.860047        23.4031 
  53   0.0000       0.882674        24.0188 
  54   0.0000       0.923289        25.1240 
  55   0.0000       0.967729        26.3332 
  56   0.0000       1.006584        27.3905 
  57   0.0000       1.112972        30.2855 
  58   0.0000       1.125415        30.6241 
  59   0.0000       1.195819        32.5399 
  60   0.0000       1.267291        34.4848 
  61   0.0000       1.285436        34.9785 
  62   0.0000       1.315916        35.8079 
  63   0.0000       1.361056        37.0362 
  64   0.0000       1.492585        40.6153 
  65   0.0000       1.563993        42.5584 
  66   0.0000       1.584399        43.1137 
  67   0.0000       1.590631        43.2833 
  68   0.0000       1.640723        44.6464 
  69   0.0000       1.702171        46.3184 
  70   0.0000       1.732355        47.1398 
  71   0.0000       1.802899        49.0594 
  72   0.0000       1.861917        50.6653 
  73   0.0000       1.872049        50.9410 
  74   0.0000       1.900442        51.7137 
  75   0.0000       1.941839        52.8401 
  76   0.0000       1.972430        53.6725 
  77   0.0000       2.010412        54.7061 
  78   0.0000       2.064790        56.1858 
  79   0.0000       2.121706        57.7345 
  80   0.0000       2.169249        59.0283 
  81   0.0000       2.195742        59.7492 
  82   0.0000       2.241442        60.9927 
  83   0.0000       2.296310        62.4858 
  84   0.0000       2.412480        65.6469 
  85   0.0000       2.444959        66.5307 
  86   0.0000       2.610695        71.0406 
  87   0.0000       2.779029        75.6212 
  88   0.0000       2.868152        78.0464 
  89   0.0000       2.902202        78.9729 
  90   0.0000       2.935395        79.8762 
  91   0.0000       3.111336        84.6638 
  92   0.0000       3.231447        87.9322 
  93   0.0000       3.863393       105.1283 

                    ********************************
                    * MULLIKEN POPULATION ANALYSIS *
                    ********************************

-----------------------
MULLIKEN ATOMIC CHARGES
-----------------------
   0 C :    0.111201
   1 C :   -0.037599
   2 C :    0.350331
   3 C :   -0.266797
   4 H :    0.195079
   5 Cl:    0.105578
   6 H :    0.215980
   7 H :    0.136455
   8 H :    0.189773
Sum of atomic charges:    1.0000000

--------------------------------
MULLIKEN REDUCED ORBITAL CHARGES
--------------------------------
  0 C s       :     3.173900  s :     3.173900
      pz      :     0.806531  p :     2.673578
      px      :     1.007606
      py      :     0.859441
      dz2     :     0.004376  d :     0.041321
      dxz     :     0.006525
      dyz     :     0.012171
      dx2y2   :     0.008337
      dxy     :     0.009911
  1 C s       :     3.276612  s :     3.276612
      pz      :     0.735852  p :     2.712743
      px      :     0.991841
      py      :     0.985050
      dz2     :     0.011577  d :     0.048244
      dxz     :     0.010945
      dyz     :     0.009276
      dx2y2   :     0.007942
      dxy     :     0.008504
  2 C s       :     3.045998  s :     3.045998
      pz      :     0.690009  p :     2.576857
      px      :     0.925820
      py      :     0.961028
      dz2     :     0.005503  d :     0.026815
      dxz     :     0.007436
      dyz     :     0.006999
      dx2y2   :     0.003999
      dxy     :     0.002878
  3 C s       :     3.639518  s :     3.639518
      pz      :     0.830821  p :     2.601842
      px      :     0.839863
      py      :     0.931158
      dz2     :     0.007897  d :     0.025437
      dxz     :     0.005609
      dyz     :     0.005512
      dx2y2   :     0.003359
      dxy     :     0.003060
  4 H s       :     0.780777  s :     0.780777
      pz      :     0.005899  p :     0.024143
      px      :     0.012696
      py      :     0.005548
  5 Cls       :     5.961582  s :     5.961582
      pz      :     3.528628  p :    10.886126
      px      :     3.783992
      py      :     3.573507
      dz2     :     0.009532  d :     0.046714
      dxz     :     0.013101
      dyz     :     0.011921
      dx2y2   :     0.004579
      dxy     :     0.007581
  6 H s       :     0.760801  s :     0.760801
      pz      :     0.002926  p :     0.023219
      px      :     0.013622
      py      :     0.006671
  7 H s       :     0.836199  s :     0.836199
      pz      :     0.013426  p :     0.027346
      px      :     0.007866
      py      :     0.006054
  8 H s       :     0.786253  s :     0.786253
      pz      :     0.005646  p :     0.023975
      px      :     0.009744
      py      :     0.008585


                     *******************************
                     * LOEWDIN POPULATION ANALYSIS *
                     *******************************

----------------------
LOEWDIN ATOMIC CHARGES
----------------------
   0 C :    0.059937
   1 C :    0.130779
   2 C :   -0.069818
   3 C :    0.119263
   4 H :    0.087849
   5 Cl:    0.391865
   6 H :    0.107299
   7 H :    0.088458
   8 H :    0.084369

-------------------------------
LOEWDIN REDUCED ORBITAL CHARGES
-------------------------------
  0 C s       :     2.915091  s :     2.915091
      pz      :     0.898296  p :     2.931035
      px      :     1.036961
      py      :     0.995777
      dz2     :     0.008749  d :     0.093937
      dxz     :     0.014480
      dyz     :     0.028485
      dx2y2   :     0.018082
      dxy     :     0.024141
  1 C s       :     2.913843  s :     2.913843
      pz      :     0.832236  p :     2.847939
      px      :     0.963149
      py      :     1.052555
      dz2     :     0.025080  d :     0.107439
      dxz     :     0.022552
      dyz     :     0.021167
      dx2y2   :     0.019360
      dxy     :     0.019281
  2 C s       :     2.885877  s :     2.885877
      pz      :     1.076938  p :     3.116892
      px      :     1.044388
      py      :     0.995566
      dz2     :     0.013048  d :     0.067049
      dxz     :     0.019882
      dyz     :     0.017663
      dx2y2   :     0.009154
      dxy     :     0.007303
  3 C s       :     2.964228  s :     2.964228
      pz      :     0.985173  p :     2.861663
      px      :     0.915071
      py      :     0.961418
      dz2     :     0.016315  d :     0.054847
      dxz     :     0.013800
      dyz     :     0.011867
      dx2y2   :     0.006438
      dxy     :     0.006427
  4 H s       :     0.838812  s :     0.838812
      pz      :     0.017813  p :     0.073339
      px      :     0.037629
      py      :     0.017896
  5 Cls       :     5.757814  s :     5.757814
      pz      :     3.486314  p :    10.801805
      px      :     3.752834
      py      :     3.562656
      dz2     :     0.009728  d :     0.048516
      dxz     :     0.013517
      dyz     :     0.012793
      dx2y2   :     0.004492
      dxy     :     0.007986
  6 H s       :     0.819274  s :     0.819274
      pz      :     0.010304  p :     0.073428
      px      :     0.040257
      py      :     0.022867
  7 H s       :     0.833020  s :     0.833020
      pz      :     0.038820  p :     0.078523
      px      :     0.022522
      py      :     0.017182
  8 H s       :     0.842509  s :     0.842509
      pz      :     0.017349  p :     0.073122
      px      :     0.028432
      py      :     0.027342


                      *****************************
                      * MAYER POPULATION ANALYSIS *
                      *****************************

  NA   - Mulliken gross atomic population
  ZA   - Total nuclear charge
  QA   - Mulliken gross atomic charge
  VA   - Mayer's total valence
  BVA  - Mayer's bonded valence
  FA   - Mayer's free valence

  ATOM       NA         ZA         QA         VA         BVA        FA
  0 C      5.8888     6.0000     0.1112     3.6937     3.6937    -0.0000
  1 C      6.0376     6.0000    -0.0376     3.6239     3.6239    -0.0000
  2 C      5.6497     6.0000     0.3503     3.3282     3.3282    -0.0000
  3 C      6.2668     6.0000    -0.2668     3.5321     3.5321    -0.0000
  4 H      0.8049     1.0000     0.1951     0.9586     0.9586     0.0000
  5 Cl    16.8944    17.0000     0.1056     1.5341     1.5341     0.0000
  6 H      0.7840     1.0000     0.2160     0.9520     0.9520     0.0000
  7 H      0.8635     1.0000     0.1365     0.9799     0.9799     0.0000
  8 H      0.8102     1.0000     0.1898     0.9639     0.9639    -0.0000

  Mayer bond orders larger than 0.100000
B(  0-C ,  1-C ) :   1.0139 B(  0-C ,  4-H ) :   0.9368 B(  0-C ,  5-Cl) :   0.8089 
B(  0-C ,  8-H ) :   0.9411 B(  1-C ,  2-C ) :   1.0291 B(  1-C ,  5-Cl) :   0.6512 
B(  1-C ,  6-H ) :   0.9135 B(  2-C ,  3-C ) :   2.3852 B(  3-C ,  7-H ) :   1.0480 


-------
TIMINGS
-------

Total SCF time: 0 days 0 hours 0 min 4 sec 

Total time                  ....       4.367 sec
Sum of individual times     ....       3.658 sec  ( 83.8%)

Fock matrix formation       ....       3.160 sec  ( 72.3%)
  Split-RI-J                ....       0.261 sec  (  8.3% of F)
  Chain of spheres X        ....       2.006 sec  ( 63.5% of F)
  XC integration            ....       0.485 sec  ( 15.3% of F)
    Basis function eval.    ....       0.088 sec  ( 18.2% of XC)
    Density eval.           ....       0.043 sec  (  8.9% of XC)
    XC-Functional eval.     ....       0.054 sec  ( 11.1% of XC)
    XC-Potential eval.      ....       0.043 sec  (  8.9% of XC)
Diagonalization             ....       0.004 sec  (  0.1%)
Density matrix formation    ....       0.003 sec  (  0.1%)
Population analysis         ....       0.019 sec  (  0.4%)
Initial guess               ....       0.005 sec  (  0.1%)
Orbital Transformation      ....       0.000 sec  (  0.0%)
Orbital Orthonormalization  ....       0.001 sec  (  0.0%)
DIIS solution               ....       0.002 sec  (  0.1%)
SOSCF solution              ....       0.014 sec  (  0.3%)
Grid generation             ....       0.453 sec  ( 10.4%)

Maximum memory used throughout the entire SCF-calculation: 46.7 MB


-------------------------------------------------------------------------------
                          DFT DISPERSION CORRECTION                            
                                                                               
                                 DFTD4 V2.5                                    
-------------------------------------------------------------------------------
The WB97X functional is recognized
Active option DFTDOPT                   ...         5   

Starting D4
-------------------------   ----------------
Dispersion correction           -0.000753670
-------------------------   ----------------


-------------------------   --------------------
FINAL SINGLE POINT ENERGY      -614.396270378730
-------------------------   --------------------

                                *** OPTIMIZATION RUN DONE ***

                            ***************************************
                            *     ORCA property calculations      *
                            ***************************************

                                    ---------------------
                                    Active property flags
                                    ---------------------
   (+) Dipole Moment


------------------------------------------------------------------------------
                       ORCA ELECTRIC PROPERTIES CALCULATION
------------------------------------------------------------------------------

Dipole Moment Calculation                       ... on
Quadrupole Moment Calculation                   ... off
Polarizability Calculation                      ... off
GBWName                                         ... cpcm_opt.gbw
Electron density                                ... cpcm_opt.scfp
The origin for moment calculation is the CENTER OF MASS  = ( 1.036912,  0.195119  0.043955)

-------------
DIPOLE MOMENT
-------------
                                X             Y             Z
Electronic contribution:      1.25712      -0.80889       3.87325
Nuclear contribution   :     -1.97690       1.39270      -4.42861
                        -----------------------------------------
Total Dipole Moment    :     -0.71977       0.58381      -0.55536
                        -----------------------------------------
Magnitude (a.u.)       :      1.08043
Magnitude (Debye)      :      2.74623



--------------------
Rotational spectrum 
--------------------
 
Rotational constants in cm-1:     0.345772     0.083099     0.073426 
Rotational constants in MHz : 10365.996760  2491.245999  2201.257135 

 Dipole components along the rotational axes: 
x,y,z [a.u.] :    -0.267824     1.045880     0.041620 
x,y,z [Debye]:    -0.680755     2.658416     0.105791 

 

Timings for individual modules:

Sum of individual times         ...      287.573 sec (=   4.793 min)
GTO integral calculation        ...       18.501 sec (=   0.308 min)   6.4 %
SCF iterations                  ...      211.951 sec (=   3.533 min)  73.7 %
SCF Gradient evaluation         ...       55.136 sec (=   0.919 min)  19.2 %
Geometry relaxation             ...        1.985 sec (=   0.033 min)   0.7 %
                             ****ORCA TERMINATED NORMALLY****
TOTAL RUN TIME: 0 days 0 hours 5 minutes 4 seconds 600 msec
