
                                 *****************
                                 * O   R   C   A *
                                 *****************

                                            #,                                       
                                            ###                                      
                                            ####                                     
                                            #####                                    
                                            ######                                   
                                           ########,                                 
                                     ,,################,,,,,                         
                               ,,#################################,,                 
                          ,,##########################################,,             
                       ,#########################################, ''#####,          
                    ,#############################################,,   '####,        
                  ,##################################################,,,,####,       
                ,###########''''           ''''###############################       
              ,#####''   ,,,,##########,,,,          '''####'''          '####       
            ,##' ,,,,###########################,,,                        '##       
           ' ,,###''''                  '''############,,,                           
         ,,##''                                '''############,,,,        ,,,,,,###''
      ,#''                                            '''#######################'''  
     '                                                          ''''####''''         
             ,#######,   #######,   ,#######,      ##                                
            ,#'     '#,  ##    ##  ,#'     '#,    #''#        ######   ,####,        
            ##       ##  ##   ,#'  ##            #'  '#       #        #'  '#        
            ##       ##  #######   ##           ,######,      #####,   #    #        
            '#,     ,#'  ##    ##  '#,     ,#' ,#      #,         ##   #,  ,#        
             '#######'   ##     ##  '#######'  #'      '#     #####' # '####'        



                  #######################################################
                  #                        -***-                        #
                  #          Department of theory and spectroscopy      #
                  #    Directorship and core code : Frank Neese         #
                  #        Max Planck Institute fuer Kohlenforschung    #
                  #                Kaiser Wilhelm Platz 1               #
                  #                 D-45470 Muelheim/Ruhr               #
                  #                      Germany                        #
                  #                                                     #
                  #                  All rights reserved                #
                  #                        -***-                        #
                  #######################################################


                         Program Version 5.0.3 -  RELEASE  -


 With contributions from (in alphabetic order):
   Daniel Aravena         : Magnetic Suceptibility
   Michael Atanasov       : Ab Initio Ligand Field Theory (pilot matlab implementation)
   Alexander A. Auer      : GIAO ZORA, VPT2 properties, NMR spectrum
   Ute Becker             : Parallelization
   Giovanni Bistoni       : ED, misc. LED, open-shell LED, HFLD
   Martin Brehm           : Molecular dynamics
   Dmytro Bykov           : SCF Hessian
   Vijay G. Chilkuri      : MRCI spin determinant printing, contributions to CSF-ICE
   Dipayan Datta          : RHF DLPNO-CCSD density
   Achintya Kumar Dutta   : EOM-CC, STEOM-CC
   Dmitry Ganyushin       : Spin-Orbit,Spin-Spin,Magnetic field MRCI
   Miquel Garcia          : C-PCM and meta-GGA Hessian, CC/C-PCM, Gaussian charge scheme
   Yang Guo               : DLPNO-NEVPT2, F12-NEVPT2, CIM, IAO-localization
   Andreas Hansen         : Spin unrestricted coupled pair/coupled cluster methods
   Benjamin Helmich-Paris : MC-RPA, TRAH-SCF, COSX integrals
   Lee Huntington         : MR-EOM, pCC
   Robert Izsak           : Overlap fitted RIJCOSX, COSX-SCS-MP3, EOM
   Marcus Kettner         : VPT2
   Christian Kollmar      : KDIIS, OOCD, Brueckner-CCSD(T), CCSD density, CASPT2, CASPT2-K
   Simone Kossmann        : Meta GGA functionals, TD-DFT gradient, OOMP2, MP2 Hessian
   Martin Krupicka        : Initial AUTO-CI
   Lucas Lang             : DCDCAS
   Marvin Lechner         : AUTO-CI (C++ implementation), FIC-MRCC
   Dagmar Lenk            : GEPOL surface, SMD
   Dimitrios Liakos       : Extrapolation schemes; Compound Job, initial MDCI parallelization
   Dimitrios Manganas     : Further ROCIS development; embedding schemes
   Dimitrios Pantazis     : SARC Basis sets
   Anastasios Papadopoulos: AUTO-CI, single reference methods and gradients
   Taras Petrenko         : DFT Hessian,TD-DFT gradient, ASA, ECA, R-Raman, ABS, FL, XAS/XES, NRVS
   Peter Pinski           : DLPNO-MP2, DLPNO-MP2 Gradient
   Christoph Reimann      : Effective Core Potentials
   Marius Retegan         : Local ZFS, SOC
   Christoph Riplinger    : Optimizer, TS searches, QM/MM, DLPNO-CCSD(T), (RO)-DLPNO pert. Triples
   Tobias Risthaus        : Range-separated hybrids, TD-DFT gradient, RPA, STAB
   Michael Roemelt        : Original ROCIS implementation
   Masaaki Saitow         : Open-shell DLPNO-CCSD energy and density
   Barbara Sandhoefer     : DKH picture change effects
   Avijit Sen             : IP-ROCIS
   Kantharuban Sivalingam : CASSCF convergence, NEVPT2, FIC-MRCI
   Bernardo de Souza      : ESD, SOC TD-DFT
   Georgi Stoychev        : AutoAux, RI-MP2 NMR, DLPNO-MP2 response
   Willem Van den Heuvel  : Paramagnetic NMR
   Boris Wezisla          : Elementary symmetry handling
   Frank Wennmohs         : Technical directorship


 We gratefully acknowledge several colleagues who have allowed us to
 interface, adapt or use parts of their codes:
   Stefan Grimme, W. Hujo, H. Kruse, P. Pracht,  : VdW corrections, initial TS optimization,
                  C. Bannwarth, S. Ehlert          DFT functionals, gCP, sTDA/sTD-DF
   Ed Valeev, F. Pavosevic, A. Kumar             : LibInt (2-el integral package), F12 methods
   Garnet Chan, S. Sharma, J. Yang, R. Olivares  : DMRG
   Ulf Ekstrom                                   : XCFun DFT Library
   Mihaly Kallay                                 : mrcc  (arbitrary order and MRCC methods)
   Jiri Pittner, Ondrej Demel                    : Mk-CCSD
   Frank Weinhold                                : gennbo (NPA and NBO analysis)
   Christopher J. Cramer and Donald G. Truhlar   : smd solvation model
   Lars Goerigk                                  : TD-DFT with DH, B97 family of functionals
   V. Asgeirsson, H. Jonsson                     : NEB implementation
   FAccTs GmbH                                   : IRC, NEB, NEB-TS, DLPNO-Multilevel, CI-OPT
                                                   MM, QMMM, 2- and 3-layer-ONIOM, Crystal-QMMM,
                                                   LR-CPCM, SF, NACMEs, symmetry and pop. for TD-DFT,
                                                   nearIR, NL-DFT gradient (VV10), updates on ESD,
                                                   ML-optimized integration grids
   S Lehtola, MJT Oliveira, MAL Marques          : LibXC Library
   Liviu Ungur et al                             : ANISO software


 Your calculation uses the libint2 library for the computation of 2-el integrals
 For citations please refer to: http://libint.valeyev.net

 Your ORCA version has been built with support for libXC version: 5.1.0
 For citations please refer to: https://tddft.org/programs/libxc/

 This ORCA versions uses:
   CBLAS   interface :  Fast vector & matrix operations
   LAPACKE interface :  Fast linear algebra routines
   SCALAPACK package :  Parallel linear algebra routines
   Shared memory     :  Shared parallel matrices
   BLAS/LAPACK       :  OpenBLAS 0.3.15  USE64BITINT DYNAMIC_ARCH NO_AFFINITY SkylakeX SINGLE_THREADED
        Core in use  :  SkylakeX
   Copyright (c) 2011-2014, The OpenBLAS Project


Your calculation utilizes the atom-pairwise dispersion correction
based on tight binding partial charges (D4)
Cite in your paper:
E.Caldeweyher, C.Bannwarth, S.Grimme, J.Chem.Phys., (2017), 147, 034112.
E.Caldeweyher, S.Ehlert, A.Hansen, H.Neugebauer, S.Grimme, J.Chem.Phys., (2018), in progress.
   

XCFun DFT library Copyright 2009-2010 Ulf Ekstrom and contributors.
See http://admol.org/xcfun for more information.
This is free software; see the source code for copying conditions.
There is ABSOLUTELY NO WARRANTY; not even for MERCHANTABILITY or FITNESS FOR A PARTICULAR PURPOSE.
For details see the documentation.
Scientific users of this library should cite U. Ekstrom, L. Visscher, R. Bast, A. J. Thorvaldsen and K. Ruud;
J.Chem.Theor.Comp. 2010, DOI: 10.1021/ct100117s
XCFun Version 0.99 

================================================================================

----- Orbital basis set information -----
Your calculation utilizes the basis: def2-TZVPP
   F. Weigend and R. Ahlrichs, Phys. Chem. Chem. Phys. 7, 3297 (2005).

----- AuxJ basis set information -----
Your calculation utilizes the auxiliary basis: def2/J
   F. Weigend, Phys. Chem. Chem. Phys. 8, 1057 (2006).

================================================================================
                                        WARNINGS
                       Please study these warnings very carefully!
================================================================================

WARNING: Old DensityContainer found on disk!
         Will remove this file - 
         If you want to keep old densities, please start your calculation with a different basename. 


WARNING: The environment variable RSH_COMMAND is not set!
  ===> : All Displacements for the Numerical Hessian or Gradient calculation
         will be started on localhost

WARNING: Geometry Optimization
  ===> : Switching off AutoStart
         For restart on a previous wavefunction, please use MOREAD

INFO   : the flag for use of the SHARK integral package has been found!

================================================================================
                                       INPUT FILE
================================================================================
NAME = MeisenheimerComplex.inp
|  1> ! RHF OPT NUMFREQ wB97X D4 def2-TZVPP Def2/J  XYZFile  CPCM(THF)
|  2> 
|  3> %PAL NPROCS 40 END
|  4> * xyz 0 1
|  5>    K       -0.49758        2.03662       -2.61226
|  6>    C       -0.15640        0.55792        0.23106
|  7>    C        0.87751        1.55367       -0.11792
|  8>    C       -1.47197        1.17853       -0.05199
|  9>    H       -0.07653        0.29858        1.46749
| 10>    H        0.02415       -0.59812       -0.20243
| 11>    C       -1.66964        2.50109       -0.02394
| 12>    H       -2.33818        0.52172        0.07450
| 13>    C        0.65701        2.87178       -0.09246
| 14>    H        1.91082        1.20317       -0.03785
| 15>    C       -0.60997        3.36208        0.05844
| 16>    H       -0.77547        4.43405        0.21165
| 17>    H        1.49687        3.55515       -0.02552
| 18>    H       -2.67577        2.88771        0.09046
| 19> *
| 20> 
| 21>                          ****END OF INPUT****
================================================================================

                       *****************************
                       * Geometry Optimization Run *
                       *****************************

Geometry optimization settings:
Update method            Update   .... BFGS
Choice of coordinates    CoordSys .... Z-matrix Internals
Initial Hessian          InHess   .... Almoef's Model

Convergence Tolerances:
Energy Change            TolE     ....  5.0000e-06 Eh
Max. Gradient            TolMAXG  ....  3.0000e-04 Eh/bohr
RMS Gradient             TolRMSG  ....  1.0000e-04 Eh/bohr
Max. Displacement        TolMAXD  ....  4.0000e-03 bohr
RMS Displacement         TolRMSD  ....  2.0000e-03 bohr
Strict Convergence                ....  False
------------------------------------------------------------------------------
                        ORCA OPTIMIZATION COORDINATE SETUP
------------------------------------------------------------------------------

The optimization will be done in new redundant internal coordinates
Making redundant internal coordinates   ...  (new redundants) done
Evaluating the initial hessian          ...  (Almloef) done
Evaluating the coordinates              ...  done
Calculating the B-matrix                .... done
Calculating the G-matrix                .... done
Diagonalizing the G-matrix              .... done
The first mode is                       ....  175
The number of degrees of freedom        ....   36

    -----------------------------------------------------------------
                    Redundant Internal Coordinates


    -----------------------------------------------------------------
         Definition                    Initial Value    Approx d2E/dq
    -----------------------------------------------------------------
      1. B(C   1,K   0)                  3.2230         0.032710   
      2. B(C   2,C   1)                  1.4773         0.453453   
      3. B(C   2,K   0)                  2.8889         0.111586   
      4. B(C   3,C   1)                  1.4819         0.445793   
      5. B(C   3,K   0)                  2.8707         0.119323   
      6. B(H   4,C   1)                  1.2659         0.188735   
      7. B(H   5,C   1)                  1.2478         0.201699   
      8. B(C   6,C   3)                  1.3375         0.757579   
      9. B(C   6,K   0)                  2.8790         0.115711   
     10. B(H   7,C   3)                  1.0944         0.354322   
     11. B(C   8,C   2)                  1.3367         0.760021   
     12. B(C   8,K   0)                  2.8948         0.109194   
     13. B(H   9,C   2)                  1.0941         0.354755   
     14. B(C  10,C   6)                  1.3678         0.677783   
     15. B(C  10,K   0)                  2.9836         0.078793   
     16. B(C  10,C   8)                  1.3669         0.680143   
     17. B(H  11,C  10)                  1.0954         0.352978   
     18. B(H  12,C   8)                  1.0848         0.367014   
     19. B(H  13,C   6)                  1.0839         0.368248   
     20. A(C   1,K   0,C  10)           54.4177         0.259906   
     21. A(C   2,K   0,C   6)           56.2558         0.335123   
     22. A(C   1,K   0,C   8)           47.3298         0.273006   
     23. A(C   2,K   0,C  10)           47.1047         0.314621   
     24. A(C   3,K   0,C   8)           56.3090         0.335629   
     25. A(C   3,K   0,C   6)           26.9032         0.338886   
     26. A(C   1,K   0,C   6)           47.4671         0.275436   
     27. A(C   2,K   0,C   8)           26.7244         0.331915   
     28. A(C   8,K   0,C  10)           26.8369         0.313517   
     29. A(C   3,K   0,C  10)           47.2873         0.318071   
     30. A(C   1,K   0,C   3)           27.3732         0.276738   
     31. A(C   2,K   0,C   3)           48.8172         0.336842   
     32. A(C   6,K   0,C   8)           48.1849         0.333919   
     33. A(C   1,K   0,C   2)           27.2769         0.273911   
     34. A(C   6,K   0,C  10)           26.9083         0.316482   
     35. A(C   3,C   1,H   5)          116.7506         0.303811   
     36. A(C   2,C   1,H   5)          116.1777         0.304641   
     37. A(K   0,C   1,C   3)           62.9588         0.293031   
     38. A(K   0,C   1,C   2)           63.6676         0.293819   
     39. A(C   2,C   1,H   4)          108.9462         0.301423   
     40. A(K   0,C   1,H   5)           97.6951         0.236469   
     41. A(C   3,C   1,H   4)          109.1705         0.300605   
     42. A(K   0,C   1,H   4)          164.2333         0.234268   
     43. A(H   4,C   1,H   5)           98.0706         0.241943   
     44. A(C   2,C   1,C   3)          107.0928         0.387351   
     45. A(C   1,C   2,C   8)          123.0070         0.425642   
     46. A(K   0,C   2,C   8)           76.8838         0.392920   
     47. A(K   0,C   2,C   1)           89.0555         0.359392   
     48. A(C   8,C   2,H   9)          118.0552         0.364423   
     49. A(C   1,C   2,H   9)          115.3272         0.334038   
     50. A(K   0,C   2,H   9)          124.4925         0.310221   
     51. A(C   6,C   3,H   7)          118.2965         0.364146   
     52. A(C   1,C   3,H   7)          115.4193         0.333028   
     53. A(K   0,C   3,H   7)          123.4448         0.313541   
     54. A(C   1,C   3,C   6)          122.7720         0.424102   
     55. A(K   0,C   3,C   6)           76.8971         0.397342   
     56. A(K   0,C   3,C   1)           89.6679         0.362469   
     57. A(C   3,C   6,H  13)          119.4779         0.366557   
     58. A(K   0,C   6,H  13)          122.0270         0.313938   
     59. A(C  10,C   6,H  13)          119.2246         0.359653   
     60. A(K   0,C   6,C   3)           76.1997         0.395204   
     61. A(C   3,C   6,C  10)          120.6088         0.457435   
     62. A(K   0,C   6,C  10)           80.8111         0.387587   
     63. A(K   0,C   8,C   2)           76.3918         0.391433   
     64. A(C  10,C   8,H  12)          119.0015         0.359660   
     65. A(C   2,C   8,H  12)          119.6469         0.366549   
     66. A(K   0,C   8,H  12)          122.9723         0.310837   
     67. A(C   2,C   8,C  10)          120.5788         0.457994   
     68. A(K   0,C   8,C  10)           80.2056         0.383927   
     69. A(C   8,C  10,H  11)          120.4303         0.357282   
     70. A(C   6,C  10,H  11)          120.4873         0.357071   
     71. A(K   0,C  10,H  11)          124.4446         0.293233   
     72. A(C   6,C  10,C   8)          119.0546         0.448552   
     73. A(K   0,C  10,C   8)           72.9575         0.362930   
     74. A(K   0,C  10,C   6)           72.2806         0.362714   
     75. D(C   3,C   1,K   0,C   6)     30.6586         0.001502   
     76. D(C   2,C   1,K   0,C   3)   -128.3769         0.001502   
     77. D(C   3,C   1,K   0,C  10)     64.3947         0.001502   
     78. D(H   4,C   1,K   0,C   8)     34.8282         0.001502   
     79. D(C   2,C   1,K   0,C   8)    -30.3558         0.001502   
     80. D(H   4,C   1,K   0,C   6)    -32.5344         0.001502   
     81. D(H   4,C   1,K   0,C  10)      1.2016         0.001502   
     82. D(H   5,C   1,K   0,C   8)   -145.8127         0.001502   
     83. D(C   2,C   1,K   0,C   6)    -97.7183         0.001502   
     84. D(C   3,C   1,K   0,C   2)    128.3769         0.001502   
     85. D(H   5,C   1,K   0,C   3)    116.1662         0.001502   
     86. D(H   5,C   1,K   0,C   6)    146.8248         0.001502   
     87. D(C   3,C   1,K   0,C   8)     98.0212         0.001502   
     88. D(H   5,C   1,K   0,C   2)   -115.4569         0.001502   
     89. D(H   4,C   1,K   0,C   2)     65.1839         0.001502   
     90. D(H   5,C   1,K   0,C  10)   -179.4392         0.001502   
     91. D(H   4,C   1,K   0,C   3)    -63.1930         0.001502   
     92. D(C   2,C   1,K   0,C  10)    -63.9823         0.001502   
     93. D(H   9,C   2,K   0,C   8)   -115.2033         0.001519   
     94. D(H   9,C   2,K   0,C   1)    120.5158         0.001519   
     95. D(C   8,C   2,K   0,C   1)   -124.2809         0.001519   
     96. D(C   8,C   2,K   0,C   3)    -95.6657         0.001519   
     97. D(C   8,C   2,K   0,C  10)    -30.3354         0.001519   
     98. D(H   9,C   2,K   0,C   6)   -178.0629         0.001519   
     99. D(C   1,C   2,K   0,C  10)     93.9456         0.001519   
    100. D(H   9,C   2,C   1,C   3)   -175.1579         0.017266   
    101. D(C   8,C   2,C   1,H   4)    -91.2256         0.017266   
    102. D(C   8,C   2,C   1,K   0)     73.6594         0.017266   
    103. D(C   1,C   2,K   0,C   6)     61.4213         0.001519   
    104. D(H   9,C   2,K   0,C  10)   -145.5387         0.001519   
    105. D(H   9,C   2,C   1,H   4)     66.8862         0.017266   
    106. D(C   1,C   2,K   0,C   3)     28.6153         0.001519   
    107. D(K   0,C   2,C   1,H   5)     85.5942         0.017266   
    108. D(K   0,C   2,C   1,H   4)   -164.8850         0.017266   
    109. D(C   8,C   2,C   1,C   3)     26.7303         0.017266   
    110. D(C   8,C   2,K   0,C   6)    -62.8596         0.001519   
    111. D(C   8,C   2,C   1,H   5)    159.2536         0.017266   
    112. D(H   9,C   2,C   1,K   0)   -128.2288         0.017266   
    113. D(K   0,C   2,C   1,C   3)    -46.9291         0.017266   
    114. D(H   9,C   2,C   1,H   5)    -42.6345         0.017266   
    115. D(C   1,C   2,K   0,C   8)    124.2809         0.001519   
    116. D(H   9,C   2,K   0,C   3)    149.1310         0.001519   
    117. D(C   6,C   3,C   1,C   2)    -26.8234         0.016685   
    118. D(C   6,C   3,C   1,H   4)     90.9861         0.016685   
    119. D(K   0,C   3,C   1,H   4)    165.1223         0.016685   
    120. D(K   0,C   3,C   1,C   2)     47.3128         0.016685   
    121. D(C   6,C   3,C   1,H   5)   -159.0341         0.016685   
    122. D(H   7,C   3,K   0,C   8)    178.2460         0.001521   
    123. D(H   7,C   3,K   0,C   2)   -149.2175         0.001521   
    124. D(C   6,C   3,K   0,C   8)     62.8070         0.001521   
    125. D(C   6,C   3,K   0,C   2)     95.3435         0.001521   
    126. D(H   7,C   3,C   1,K   0)    127.4062         0.016685   
    127. D(H   7,C   3,K   0,C   6)    115.4390         0.001521   
    128. D(H   7,C   3,K   0,C  10)    145.8175         0.001521   
    129. D(C   6,C   3,K   0,C   1)    123.8573         0.001521   
    130. D(C   1,C   3,K   0,C  10)    -93.4788         0.001521   
    131. D(K   0,C   3,C   1,H   5)    -84.8979         0.016685   
    132. D(C   6,C   3,C   1,K   0)    -74.1362         0.016685   
    133. D(C   1,C   3,K   0,C   8)    -61.0503         0.001521   
    134. D(C   1,C   3,K   0,C   6)   -123.8573         0.001521   
    135. D(H   7,C   3,K   0,C   1)   -120.7037         0.001521   
    136. D(C   6,C   3,K   0,C  10)     30.3784         0.001521   
    137. D(C   1,C   3,K   0,C   2)    -28.5138         0.001521   
    138. D(H   7,C   3,C   1,H   5)     42.5083         0.016685   
    139. D(H   7,C   3,C   1,H   4)    -67.4715         0.016685   
    140. D(H   7,C   3,C   1,C   2)    174.7190         0.016685   
    141. D(H  13,C   6,C   3,C   1)   -159.7899         0.048050   
    142. D(H  13,C   6,C   3,K   0)    119.2383         0.048050   
    143. D(C  10,C   6,C   3,H   7)    168.5014         0.048050   
    144. D(C  10,C   6,C   3,C   1)     10.6278         0.048050   
    145. D(C  10,C   6,C   3,K   0)    -70.3440         0.048050   
    146. D(K   0,C   6,C   3,H   7)   -121.1546         0.048050   
    147. D(K   0,C   6,C   3,C   1)     80.9718         0.048050   
    148. D(H  13,C   6,K   0,C  10)    118.8281         0.001520   
    149. D(H  13,C   6,K   0,C   8)    146.8509         0.001520   
    150. D(H  13,C   6,K   0,C   3)   -116.3618         0.001520   
    151. D(H  13,C   6,K   0,C   2)    179.3267         0.001520   
    152. D(H  13,C   6,K   0,C   1)   -147.5699         0.001520   
    153. D(C  10,C   6,K   0,C   8)     28.0228         0.001520   
    154. D(C  10,C   6,K   0,C   3)    124.8101         0.001520   
    155. D(C  10,C   6,K   0,C   2)     60.4985         0.001520   
    156. D(C  10,C   6,K   0,C   1)     93.6019         0.001520   
    157. D(C   3,C   6,K   0,C  10)   -124.8101         0.001520   
    158. D(C   3,C   6,K   0,C   8)    -96.7873         0.001520   
    159. D(C   3,C   6,K   0,C   2)    -64.3116         0.001520   
    160. D(H  13,C   6,C   3,H   7)     -1.9163         0.048050   
    161. D(C   3,C   6,K   0,C   1)    -31.2081         0.001520   
    162. D(H  12,C   8,C   2,H   9)      1.8923         0.048393   
    163. D(H  12,C   8,C   2,K   0)   -120.4321         0.048393   
    164. D(C  10,C   8,C   2,H   9)   -167.9394         0.048393   
    165. D(C  10,C   8,C   2,C   1)    -10.3865         0.048393   
    166. D(K   0,C   8,C   2,H   9)    122.3244         0.048393   
    167. D(K   0,C   8,C   2,C   1)    -80.1227         0.048393   
    168. D(H  12,C   8,K   0,C  10)   -118.3251         0.001518   
    169. D(H  12,C   8,K   0,C   6)   -146.4230         0.001518   
    170. D(H  12,C   8,K   0,C   3)   -179.1076         0.001518   
    171. D(H  12,C   8,K   0,C   2)    116.7188         0.001518   
    172. D(H  12,C   8,K   0,C   1)    147.7178         0.001518   
    173. D(C  10,C   8,K   0,C   6)    -28.0979         0.001518   
    174. D(C  10,C   8,K   0,C   3)    -60.7824         0.001518   
    175. D(C  10,C   8,K   0,C   2)   -124.9561         0.001518   
    176. D(C  10,C   8,C   2,K   0)     69.7362         0.048393   
    177. D(C  10,C   8,K   0,C   1)    -93.9571         0.001518   
    178. D(C   2,C   8,K   0,C  10)    124.9561         0.001518   
    179. D(C   2,C   8,K   0,C   6)     96.8582         0.001518   
    180. D(H  12,C   8,C   2,C   1)    159.4452         0.048393   
    181. D(C   2,C   8,K   0,C   3)     64.1736         0.001518   
    182. D(C   2,C   8,K   0,C   1)     30.9990         0.001518   
    183. D(C   8,C  10,C   6,H  13)   -179.7026         0.037653   
    184. D(C   8,C  10,C   6,C   3)      9.8557         0.037653   
    185. D(C   8,C  10,C   6,K   0)    -58.0298         0.037653   
    186. D(K   0,C  10,C   6,C   3)     67.8854         0.037653   
    187. D(H  11,C  10,K   0,C   8)    115.6031         0.001510   
    188. D(H  11,C  10,K   0,C   6)   -115.2588         0.001510   
    189. D(H  11,C  10,K   0,C   3)   -145.6314         0.001510   
    190. D(H  11,C  10,K   0,C   2)    145.8084         0.001510   
    191. D(H  11,C  10,K   0,C   1)   -179.9854         0.001510   
    192. D(C   8,C  10,K   0,C   6)    129.1381         0.001510   
    193. D(C   8,C  10,K   0,C   3)     98.7655         0.001510   
    194. D(C   8,C  10,K   0,C   2)     30.2053         0.001510   
    195. D(C   8,C  10,K   0,C   1)     64.4115         0.001510   
    196. D(K   0,C  10,C   6,H  13)   -121.6728         0.037653   
    197. D(C   6,C  10,K   0,C   8)   -129.1381         0.001510   
    198. D(C   6,C  10,K   0,C   3)    -30.3726         0.001510   
    199. D(C   6,C  10,K   0,C   2)    -98.9328         0.001510   
    200. D(H  11,C  10,C   6,K   0)    120.0617         0.037653   
    201. D(C   6,C  10,K   0,C   1)    -64.7265         0.001510   
    202. D(H  11,C  10,C   8,H  12)      1.9960         0.037939   
    203. D(H  11,C  10,C   8,C   2)    171.8925         0.037939   
    204. D(H  11,C  10,C   8,K   0)   -120.4001         0.037939   
    205. D(C   6,C  10,C   8,H  12)   -179.9115         0.037939   
    206. D(C   6,C  10,C   8,C   2)    -10.0150         0.037939   
    207. D(C   6,C  10,C   8,K   0)     57.6925         0.037939   
    208. D(K   0,C  10,C   8,H  12)    122.3961         0.037939   
    209. D(K   0,C  10,C   8,C   2)    -67.7074         0.037939   
    210. D(H  11,C  10,C   6,H  13)     -1.6112         0.037653   
    211. D(H  11,C  10,C   6,C   3)   -172.0529         0.037653   
    -----------------------------------------------------------------

Number of atoms                         .... 14
Number of degrees of freedom            .... 211

         *************************************************************
         *                GEOMETRY OPTIMIZATION CYCLE   1            *
         *************************************************************
---------------------------------
CARTESIAN COORDINATES (ANGSTROEM)
---------------------------------
  K     -0.497580    2.036620   -2.612260
  C     -0.156400    0.557920    0.231060
  C      0.877510    1.553670   -0.117920
  C     -1.471970    1.178530   -0.051990
  H     -0.076530    0.298580    1.467490
  H      0.024150   -0.598120   -0.202430
  C     -1.669640    2.501090   -0.023940
  H     -2.338180    0.521720    0.074500
  C      0.657010    2.871780   -0.092460
  H      1.910820    1.203170   -0.037850
  C     -0.609970    3.362080    0.058440
  H     -0.775470    4.434050    0.211650
  H      1.496870    3.555150   -0.025520
  H     -2.675770    2.887710    0.090460

----------------------------
CARTESIAN COORDINATES (A.U.)
----------------------------
  NO LB      ZA    FRAG     MASS         X           Y           Z
   0 K    19.0000    0    39.100   -0.940290    3.848654   -4.936456
   1 C     6.0000    0    12.011   -0.295553    1.054316    0.436640
   2 C     6.0000    0    12.011    1.658254    2.936011   -0.222837
   3 C     6.0000    0    12.011   -2.781620    2.227099   -0.098247
   4 H     1.0000    0     1.008   -0.144621    0.564234    2.773154
   5 H     1.0000    0     1.008    0.045637   -1.130283   -0.382537
   6 C     6.0000    0    12.011   -3.155162    4.726375   -0.045240
   7 H     1.0000    0     1.008   -4.418520    0.985908    0.140785
   8 C     6.0000    0    12.011    1.241569    5.426878   -0.174724
   9 H     1.0000    0     1.008    3.610926    2.273662   -0.071526
  10 C     6.0000    0    12.011   -1.152676    6.353410    0.110436
  11 H     1.0000    0     1.008   -1.465426    8.379140    0.399961
  12 H     1.0000    0     1.008    2.828674    6.718260   -0.048226
  13 H     1.0000    0     1.008   -5.056472    5.456981    0.170945

--------------------------------
INTERNAL COORDINATES (ANGSTROEM)
--------------------------------
 K      0   0   0     0.000000000000     0.00000000     0.00000000
 C      1   0   0     3.222953010020     0.00000000     0.00000000
 C      2   1   0     1.477252514298    63.66757955     0.00000000
 C      2   1   3     1.481890177948    62.95883397   128.37694331
 H      2   1   3     1.265857652898   164.23333014    65.18392254
 H      2   1   3     1.247774163942    97.69508054   244.54310870
 C      4   2   1     1.337544460943   122.77202982   285.86378075
 H      4   2   1     1.094403426667   115.41928949   127.40623109
 C      3   2   1     1.336668408282   123.00703647    73.65942800
 H      3   2   1     1.094070843684   115.32715630   231.77123976
 C      9   3   2     1.366895467986   120.57879482   349.61347833
 H     11   9   3     1.095437462843   120.43028647   171.89249547
 H      9   3   2     1.084822722891   119.64692911   159.44516916
 H      7   4   2     1.083909572474   119.47794868   200.21008221

---------------------------
INTERNAL COORDINATES (A.U.)
---------------------------
 K      0   0   0     0.000000000000     0.00000000     0.00000000
 C      1   0   0     6.090498531436     0.00000000     0.00000000
 C      2   1   0     2.791602682670    63.66757955     0.00000000
 C      2   1   3     2.800366596870    62.95883397   128.37694331
 H      2   1   3     2.392124288505   164.23333014    65.18392254
 H      2   1   3     2.357951446832    97.69508054   244.54310870
 C      4   2   1     2.527592723126   122.77202982   285.86378075
 H      4   2   1     2.068122756425   115.41928949   127.40623109
 C      3   2   1     2.525937223518   123.00703647    73.65942800
 H      3   2   1     2.067494265671   115.32715630   231.77123976
 C      9   3   2     2.583058088191   120.57879482   349.61347833
 H     11   9   3     2.070076801611   120.43028647   171.89249547
 H      9   3   2     2.050017850118   119.64692911   159.44516916
 H      7   4   2     2.048292245911   119.47794868   200.21008221

---------------------
BASIS SET INFORMATION
---------------------
There are 3 groups of distinct atoms

 Group   1 Type K   : 17s11p3d contracted to 6s4p3d pattern {842111/6311/111}
 Group   2 Type C   : 11s6p2d1f contracted to 5s3p2d1f pattern {62111/411/11/1}
 Group   3 Type H   : 5s2p1d contracted to 3s2p1d pattern {311/11/1}

Atom   0K    basis set group =>   1
Atom   1C    basis set group =>   2
Atom   2C    basis set group =>   2
Atom   3C    basis set group =>   2
Atom   4H    basis set group =>   3
Atom   5H    basis set group =>   3
Atom   6C    basis set group =>   2
Atom   7H    basis set group =>   3
Atom   8C    basis set group =>   2
Atom   9H    basis set group =>   3
Atom  10C    basis set group =>   2
Atom  11H    basis set group =>   3
Atom  12H    basis set group =>   3
Atom  13H    basis set group =>   3
---------------------------------
AUXILIARY/J BASIS SET INFORMATION
---------------------------------
There are 3 groups of distinct atoms

 Group   1 Type K   : 19s5p5d3f1g contracted to 8s4p4d1f1g pattern {121111111/2111/2111/3/1}
 Group   2 Type C   : 12s5p4d2f1g contracted to 6s4p3d1f1g pattern {711111/2111/211/2/1}
 Group   3 Type H   : 5s2p1d contracted to 3s1p1d pattern {311/2/1}

Atom   0K    basis set group =>   1
Atom   1C    basis set group =>   2
Atom   2C    basis set group =>   2
Atom   3C    basis set group =>   2
Atom   4H    basis set group =>   3
Atom   5H    basis set group =>   3
Atom   6C    basis set group =>   2
Atom   7H    basis set group =>   3
Atom   8C    basis set group =>   2
Atom   9H    basis set group =>   3
Atom  10C    basis set group =>   2
Atom  11H    basis set group =>   3
Atom  12H    basis set group =>   3
Atom  13H    basis set group =>   3


           ************************************************************
           *        Program running with 40 parallel MPI-processes    *
           *              working on a common directory               *
           ************************************************************
------------------------------------------------------------------------------
                           ORCA GTO INTEGRAL CALCULATION
                           -- RI-GTO INTEGRALS CHOSEN --
------------------------------------------------------------------------------
------------------------------------------------------------------------------
                   ___                                                        
                  /   \      - P O W E R E D   B Y -                         
                 /     \                                                     
                 |  |  |   _    _      __       _____    __    __             
                 |  |  |  | |  | |    /  \     |  _  \  |  |  /  |          
                  \  \/   | |  | |   /    \    | | | |  |  | /  /          
                 / \  \   | |__| |  /  /\  \   | |_| |  |  |/  /          
                |  |  |   |  __  | /  /__\  \  |    /   |      \           
                |  |  |   | |  | | |   __   |  |    \   |  |\   \          
                \     /   | |  | | |  |  |  |  | |\  \  |  | \   \       
                 \___/    |_|  |_| |__|  |__|  |_| \__\ |__|  \__/        
                                                                              
                      - O R C A' S   B I G   F R I E N D -                    
                                      &                                       
                       - I N T E G R A L  F E E D E R -                       
                                                                              
 v1 FN, 2020, v2 2021                                                         
------------------------------------------------------------------------------


Reading SHARK input file MeisenheimerComplex.SHARKINP.tmp ... ok
----------------------
SHARK INTEGRAL PACKAGE
----------------------

Number of atoms                             ...     14
Number of basis functions                   ...    317
Number of shells                            ...    121
Maximum angular momentum                    ...      3
Integral batch strategy                     ... SHARK/LIBINT Hybrid
RI-J (if used) integral strategy            ... SPLIT-RIJ (Revised 2003 algorithm where possible)
Printlevel                                  ...      1
Contraction scheme used                     ... SEGMENTED contraction
Coulomb Range Separation                    ... NOT USED
Exchange Range Separation                   ... Long Range
   Mu parameter                             ...  0.300000
   Scaling (regular/separated)              ...  0.157706  0.842294
Finite Nucleus Model                        ... NOT USED
Auxiliary Coulomb fitting basis             ... AVAILABLE
   # of basis functions in Aux-J            ...    427
   # of shells in Aux-J                     ...    143
   Maximum angular momentum in Aux-J        ...      4
Auxiliary J/K fitting basis                 ... NOT available
Auxiliary Correlation fitting basis         ... NOT available
Auxiliary 'external' fitting basis          ... NOT available
Integral threshold                          ...     2.500000e-11
Primitive cut-off                           ...     2.500000e-12
Primitive pair pre-selection threshold      ...     2.500000e-12

Calculating pre-screening integrals         ... done (  0.1 sec) Dimension = 121
Organizing shell pair data                  ... done (  0.1 sec)
Shell pair information
Total number of shell pairs                 ...      7381
Shell pairs after pre-screening             ...      6993
Total number of primitive shell pairs       ...     21734
Primitive shell pairs kept                  ...     15970
          la=0 lb=0:   1518 shell pairs
          la=1 lb=0:   1950 shell pairs
          la=1 lb=1:    647 shell pairs
          la=2 lb=0:   1166 shell pairs
          la=2 lb=1:    758 shell pairs
          la=2 lb=2:    243 shell pairs
          la=3 lb=0:    342 shell pairs
          la=3 lb=1:    216 shell pairs
          la=3 lb=2:    132 shell pairs
          la=3 lb=3:     21 shell pairs

Calculating one electron integrals          ... done (  0.0 sec)
Calculating RI/J V-Matrix + Cholesky decomp.... done (  0.4 sec)
Calculating Nuclear repulsion               ... done (  0.0 sec) ENN=    354.746121268828 Eh

SHARK setup successfully completed in   1.3 seconds

Maximum memory used throughout the entire GTOINT-calculation: 23.9 MB


           ************************************************************
           *        Program running with 40 parallel MPI-processes    *
           *              working on a common directory               *
           ************************************************************
-------------------------------------------------------------------------------
                                 ORCA SCF
-------------------------------------------------------------------------------

------------
SCF SETTINGS
------------
Hamiltonian:
 Density Functional     Method          .... DFT(GTOs)
 Exchange Functional    Exchange        .... WB97X
 Correlation Functional Correlation     .... WB97X
 Gradients option       PostSCFGGA      .... off
 Hybrid DFT is turned on
   Fraction HF Exchange ScalHFX         ....  0.157706
   Scaling of DF-GGA-X  ScalDFX         ....  0.000000
   Scaling of DF-GGA-C  ScalDFC         ....  1.000000
   Scaling of DF-LDA-C  ScalLDAC        ....  1.000000
   Perturbative correction              ....  0.000000
   Density functional embedding theory  .... OFF
 Long-range corrected/Screened/Range-Separated Hybrid DFT is turned on
   Amount of maximum screened exact exchange              ....  0.842294
   Range separation parameter mu (erf(mu*r12)/r12)        ....  0.300000
 RI-approximation to the Coulomb term is turned on
   Number of AuxJ basis functions       .... 427
   RIJ-COSX (HFX calculated with COS-X)).... on


General Settings:
 Integral files         IntName         .... MeisenheimerComplex
 Hartree-Fock type      HFTyp           .... RHF
 Total Charge           Charge          ....    0
 Multiplicity           Mult            ....    1
 Number of Electrons    NEL             ....   62
 Basis Dimension        Dim             ....  317
 Nuclear Repulsion      ENuc            ....    354.7461212688 Eh

Convergence Acceleration:
 DIIS                   CNVDIIS         .... on
   Start iteration      DIISMaxIt       ....    12
   Startup error        DIISStart       ....  0.200000
   # of expansion vecs  DIISMaxEq       ....     5
   Bias factor          DIISBfac        ....   1.050
   Max. coefficient     DIISMaxC        ....  10.000
 Trust-Rad. Augm. Hess. CNVTRAH         .... auto
   Auto Start mean grad. ratio tolernc. ....  1.125000
   Auto Start start iteration           ....    20
   Auto Start num. interpolation iter.  ....    10
   Max. Number of Micro iterations      ....    16
   Max. Number of Macro iterations      .... Maxiter - #DIIS iter
   Number of Davidson start vectors     ....     2
   Converg. threshold I  (grad. norm)   ....   1.000e-05
   Converg. threshold II (energy diff.) ....   1.000e-08
   Grad. Scal. Fac. for Micro threshold ....   0.100
   Minimum threshold for Micro iter.    ....   0.010
   NR start threshold (gradient norm)   ....   0.001
   Initial trust radius                 ....   0.400
   Minimum AH scaling param. (alpha)    ....   1.000
   Maximum AH scaling param. (alpha)    .... 1000.000
   Orbital update algorithm             .... Taylor
   White noise on init. David. guess    .... on
   Maximum white noise                  ....   0.010
   Quad. conv. algorithm                .... NR
 SOSCF                  CNVSOSCF        .... on
   Start iteration      SOSCFMaxIt      ....   150
   Startup grad/error   SOSCFStart      ....  0.003300
 Level Shifting         CNVShift        .... on
   Level shift para.    LevelShift      ....    0.2500
   Turn off err/grad.   ShiftErr        ....    0.0010
 Zerner damping         CNVZerner       .... off
 Static damping         CNVDamp         .... on
   Fraction old density DampFac         ....    0.7000
   Max. Damping (<1)    DampMax         ....    0.9800
   Min. Damping (>=0)   DampMin         ....    0.0000
   Turn off err/grad.   DampErr         ....    0.1000
 Fernandez-Rico         CNVRico         .... off

SCF Procedure:
 Maximum # iterations   MaxIter         ....   125
 SCF integral mode      SCFMode         .... Direct
   Integral package                     .... SHARK and LIBINT hybrid scheme
 Reset frequency        DirectResetFreq ....    20
 Integral Threshold     Thresh          ....  2.500e-11 Eh
 Primitive CutOff       TCut            ....  2.500e-12 Eh

Convergence Tolerance:
 Convergence Check Mode ConvCheckMode   .... Total+1el-Energy
 Convergence forced     ConvForced      .... 0
 Energy Change          TolE            ....  1.000e-08 Eh
 1-El. energy change                    ....  1.000e-05 Eh
 Orbital Gradient       TolG            ....  1.000e-05
 Orbital Rotation angle TolX            ....  1.000e-05
 DIIS Error             TolErr          ....  5.000e-07


Diagonalization of the overlap matrix:
Smallest eigenvalue                        ... 2.603e-05
Time for diagonalization                   ...    0.023 sec
Threshold for overlap eigenvalues          ... 1.000e-08
Number of eigenvalues below threshold      ... 0
Time for construction of square roots      ...    0.103 sec
Total time needed                          ...    0.137 sec

Time for model grid setup =    0.458 sec

------------------------------
INITIAL GUESS: MODEL POTENTIAL
------------------------------
Loading Hartree-Fock densities                     ... done
Calculating cut-offs                               ... done
Initializing the effective Hamiltonian             ... done
Setting up the integral package (SHARK)            ... done
Starting the Coulomb interaction                   ... done (   0.1 sec)
Reading the grid                                   ... done
Mapping shells                                     ... done
Starting the XC term evaluation                    ... done (   0.0 sec)
  promolecular density results
     # of electrons  =     61.997210918
     EX              =    -65.261885176
     EC              =     -2.156042373
     EX+EC           =    -67.417927548
Transforming the Hamiltonian                       ... done (   0.0 sec)
Diagonalizing the Hamiltonian                      ... done (   0.0 sec)
Back transforming the eigenvectors                 ... done (   0.0 sec)
Now organizing SCF variables                       ... done
                      ------------------
                      INITIAL GUESS DONE (   0.8 sec)
                      ------------------
-------------------
DFT GRID GENERATION
-------------------

General Integration Accuracy     IntAcc      ... 4.388
Radial Grid Type                 RadialGrid  ... OptM3 with GC (2021)
Angular Grid (max. ang.)         AngularGrid ... 4 (Lebedev-302)
Angular grid pruning method      GridPruning ... 4 (adaptive)
Weight generation scheme         WeightScheme... Becke
Basis function cutoff            BFCut       ... 1.0000e-11
Integration weight cutoff        WCut        ... 1.0000e-14
Angular grids for H and He will be reduced by one unit
Partially contracted basis set               ... off
Rotationally invariant grid construction     ... off

Total number of grid points                  ...    69294
Total number of batches                      ...     1090
Average number of points per batch           ...       63
Average number of grid points per atom       ...     4950
Time for grid setup =    0.458 sec

--------------------
COSX GRID GENERATION
--------------------

GRIDX 1
-------
General Integration Accuracy     IntAcc      ... 3.816
Radial Grid Type                 RadialGrid  ... OptM3 with GC (2021)
Angular Grid (max. ang.)         AngularGrid ... 1 (Lebedev-50)
Angular grid pruning method      GridPruning ... 4 (adaptive)
Weight generation scheme         WeightScheme... Becke
Basis function cutoff            BFCut       ... 1.0000e-11
Integration weight cutoff        WCut        ... 1.0000e-14
Angular grids for H and He will be reduced by one unit
Partially contracted basis set               ... on
Rotationally invariant grid construction     ... off

Total number of grid points                  ...     8678
Total number of batches                      ...      143
Average number of points per batch           ...       60
Average number of grid points per atom       ...      620
UseSFitting                                  ... on

GRIDX 2
-------
General Integration Accuracy     IntAcc      ... 4.020
Radial Grid Type                 RadialGrid  ... OptM3 with GC (2021)
Angular Grid (max. ang.)         AngularGrid ... 2 (Lebedev-110)
Angular grid pruning method      GridPruning ... 4 (adaptive)
Weight generation scheme         WeightScheme... Becke
Basis function cutoff            BFCut       ... 1.0000e-11
Integration weight cutoff        WCut        ... 1.0000e-14
Angular grids for H and He will be reduced by one unit
Partially contracted basis set               ... on
Rotationally invariant grid construction     ... off

Total number of grid points                  ...    18611
Total number of batches                      ...      298
Average number of points per batch           ...       62
Average number of grid points per atom       ...     1329
UseSFitting                                  ... on

GRIDX 3
-------
General Integration Accuracy     IntAcc      ... 4.338
Radial Grid Type                 RadialGrid  ... OptM3 with GC (2021)
Angular Grid (max. ang.)         AngularGrid ... 3 (Lebedev-194)
Angular grid pruning method      GridPruning ... 4 (adaptive)
Weight generation scheme         WeightScheme... Becke
Basis function cutoff            BFCut       ... 1.0000e-11
Integration weight cutoff        WCut        ... 1.0000e-14
Angular grids for H and He will be reduced by one unit
Partially contracted basis set               ... on
Rotationally invariant grid construction     ... off

Total number of grid points                  ...    40970
Total number of batches                      ...      647
Average number of points per batch           ...       63
Average number of grid points per atom       ...     2926
UseSFitting                                  ... on

Time for X-Grid setup             =    1.548 sec


--------------------
CPCM SOLVATION MODEL
--------------------
CPCM parameters:
  Epsilon                                         ...       7.2500
  Refrac                                          ...       1.4070
  Rsolv                                           ...       1.3000
  Surface type                                    ... GAUSSIAN VDW
  Epsilon function type                           ...         CPCM
Radii:
 Radius for K  used is    6.2361 Bohr (=   3.3000 Ang.)
 Radius for C  used is    3.8550 Bohr (=   2.0400 Ang.)
 Radius for H  used is    2.4944 Bohr (=   1.3200 Ang.)
Calculating surface                               ...        done! (  0.0s)
GEPOL surface points                              ...          746
GEPOL Volume                                      ...    1483.4111
GEPOL Surface-area                                ...     682.5139
Calculating surface distance matrix               ...        done! (  0.0s)
Performing Cholesky decomposition & store         ...        done! (  0.1s)
Overall time for CPCM initialization              ...                 0.1s
--------------
SCF ITERATIONS
--------------
ITER       Energy         Delta-E        Max-DP      RMS-DP      [F,P]     Damp
               ***  Starting incremental Fock matrix formation  ***
  0   -832.4256207175   0.000000000000 0.04494593  0.00104047  0.2205568 0.7000
  1   -832.5561798377  -0.130559120171 0.04151857  0.00082387  0.1267711 0.7000
                               ***Turning on DIIS***
  2   -832.6216425655  -0.065462727743 0.08370272  0.00168780  0.0607911 0.0000
  3   -832.7228791648  -0.101236599305 0.02213526  0.00050925  0.0568317 0.0000
  4   -832.7421375196  -0.019258354877 0.00706082  0.00017226  0.0096714 0.0000
                      *** Initiating the SOSCF procedure ***
                           *** Shutting down DIIS ***
                      *** Re-Reading the Fockian *** 
                      *** Removing any level shift *** 
ITER      Energy       Delta-E        Grad      Rot      Max-DP    RMS-DP
  5   -832.74281768  -0.0006801619  0.001115  0.001115  0.008185  0.000094
               *** Restarting incremental Fock matrix formation ***
  6   -832.74295119  -0.0001335096  0.000514  0.001583  0.008008  0.000084
  7   -832.74297238  -0.0000211905  0.000313  0.002025  0.009641  0.000088
  8   -832.74297842  -0.0000060386  0.000233  0.000374  0.000891  0.000021
  9   -832.74297966  -0.0000012394  0.000057  0.000104  0.000271  0.000006
 10   -832.74297978  -0.0000001235  0.000021  0.000113  0.000225  0.000003
 11   -832.74297982  -0.0000000349  0.000008  0.000059  0.000200  0.000002
 12   -832.74297983  -0.0000000075  0.000004  0.000009  0.000028  0.000001
                  ***Gradient check signals convergence***
              ***Rediagonalizing the Fockian in SOSCF/NRSCF***

               *****************************************************
               *                     SUCCESS                       *
               *           SCF CONVERGED AFTER  13 CYCLES          *
               *****************************************************

Old exchange energy                            =    -18.694266628 Eh
New exchange energy                            =    -18.694271716 Eh
Exchange energy change after final integration =     -0.000005089 Eh
Total energy after final integration           =   -832.742984911 Eh
Final COS-X integration done in                =     1.629 sec

----------------
TOTAL SCF ENERGY
----------------

Total Energy       :         -832.74298491 Eh          -22660.08864 eV

Components:
Nuclear Repulsion  :          354.74612127 Eh            9653.13272 eV
Electronic Energy  :        -1187.48910618 Eh          -32313.22135 eV
One Electron Energy:        -1843.57987745 Eh          -50166.35887 eV
Two Electron Energy:          656.09077127 Eh           17853.13752 eV
Max COSX asymmetry :            0.00000188 Eh               0.00005 eV
CPCM Dielectric    :           -0.01452860 Eh              -0.39534 eV

Virial components:
Potential Energy   :        -1663.63400694 Eh          -45269.78280 eV
Kinetic Energy     :          830.89102203 Eh           22609.69416 eV
Virial Ratio       :            2.00222889


DFT components:
N(Alpha)           :       30.999919397074 electrons
N(Beta)            :       30.999919397074 electrons
N(Total)           :       61.999838794149 electrons
E(XC)              :      -50.062900134997 Eh       
DFET-embed. en.    :        0.000000000000 Eh       
CPCM Solvation Model Properties:
Surface-charge          :           -0.02460061
Charge-correction       :           -0.00015166 Eh              -0.00413 eV
Free-energy (cav+disp)  :  This term is not implemented in the current solvation scheme

---------------
SCF CONVERGENCE
---------------

  Last Energy change         ...    2.6096e-09  Tolerance :   1.0000e-08
  Last MAX-Density change    ...    3.1086e-15  Tolerance :   1.0000e-07
  Last RMS-Density change    ...    2.4276e-17  Tolerance :   5.0000e-09
  Last Orbital Gradient      ...    7.9129e-07  Tolerance :   1.0000e-05
  Last Orbital Rotation      ...    3.5262e-06  Tolerance :   1.0000e-05

             **** THE GBW FILE WAS UPDATED (MeisenheimerComplex.gbw) ****
             **** DENSITY MeisenheimerComplex.scfp WAS UPDATED ****
             **** ENERGY FILE WAS UPDATED (MeisenheimerComplex.en.tmp) ****
             **** THE GBW FILE WAS UPDATED (MeisenheimerComplex.gbw) ****
             **** DENSITY MeisenheimerComplex.scfp WAS UPDATED ****
----------------
ORBITAL ENERGIES
----------------

  NO   OCC          E(Eh)            E(eV) 
   0   2.0000    -129.737407     -3530.3343 
   1   2.0000     -13.278372      -361.3229 
   2   2.0000     -10.619920      -288.9827 
   3   2.0000     -10.619795      -288.9793 
   4   2.0000     -10.619790      -288.9792 
   5   2.0000     -10.263620      -279.2873 
   6   2.0000     -10.226008      -278.2638 
   7   2.0000     -10.225636      -278.2537 
   8   2.0000     -10.205278      -277.6997 
   9   2.0000     -10.204862      -277.6884 
  10   2.0000     -10.189965      -277.2830 
  11   2.0000      -1.495863       -40.7045 
  12   2.0000      -0.966516       -26.3002 
  13   2.0000      -0.860086       -23.4041 
  14   2.0000      -0.854927       -23.2637 
  15   2.0000      -0.848213       -23.0810 
  16   2.0000      -0.842906       -22.9366 
  17   2.0000      -0.837209       -22.7816 
  18   2.0000      -0.701530       -19.0896 
  19   2.0000      -0.680287       -18.5116 
  20   2.0000      -0.610182       -16.6039 
  21   2.0000      -0.537424       -14.6241 
  22   2.0000      -0.520802       -14.1717 
  23   2.0000      -0.496871       -13.5205 
  24   2.0000      -0.495615       -13.4864 
  25   2.0000      -0.482961       -13.1420 
  26   2.0000      -0.418826       -11.3968 
  27   2.0000      -0.402456       -10.9514 
  28   2.0000      -0.388808       -10.5800 
  29   2.0000      -0.342526        -9.3206 
  30   2.0000      -0.209245        -5.6939 
  31   0.0000       0.026820         0.7298 
  32   0.0000       0.082176         2.2361 
  33   0.0000       0.091585         2.4922 
  34   0.0000       0.098117         2.6699 
  35   0.0000       0.098705         2.6859 
  36   0.0000       0.115803         3.1512 
  37   0.0000       0.131474         3.5776 
  38   0.0000       0.159220         4.3326 
  39   0.0000       0.164081         4.4649 
  40   0.0000       0.164340         4.4719 
  41   0.0000       0.165607         4.5064 
  42   0.0000       0.174810         4.7568 
  43   0.0000       0.197765         5.3815 
  44   0.0000       0.221484         6.0269 
  45   0.0000       0.228391         6.2148 
  46   0.0000       0.229119         6.2346 
  47   0.0000       0.232568         6.3285 
  48   0.0000       0.241884         6.5820 
  49   0.0000       0.257419         7.0047 
  50   0.0000       0.296897         8.0790 
  51   0.0000       0.297756         8.1023 
  52   0.0000       0.307808         8.3759 
  53   0.0000       0.319548         8.6954 
  54   0.0000       0.324270         8.8238 
  55   0.0000       0.344736         9.3807 
  56   0.0000       0.349644         9.5143 
  57   0.0000       0.350045         9.5252 
  58   0.0000       0.355411         9.6712 
  59   0.0000       0.361680         9.8418 
  60   0.0000       0.367764        10.0074 
  61   0.0000       0.391758        10.6603 
  62   0.0000       0.394894        10.7456 
  63   0.0000       0.407235        11.0814 
  64   0.0000       0.429874        11.6975 
  65   0.0000       0.431229        11.7343 
  66   0.0000       0.449301        12.2261 
  67   0.0000       0.456269        12.4157 
  68   0.0000       0.460084        12.5195 
  69   0.0000       0.494479        13.4555 
  70   0.0000       0.501960        13.6590 
  71   0.0000       0.507766        13.8170 
  72   0.0000       0.514668        14.0048 
  73   0.0000       0.518885        14.1196 
  74   0.0000       0.519357        14.1324 
  75   0.0000       0.524470        14.2716 
  76   0.0000       0.527087        14.3428 
  77   0.0000       0.545037        14.8312 
  78   0.0000       0.547105        14.8875 
  79   0.0000       0.557698        15.1757 
  80   0.0000       0.572137        15.5686 
  81   0.0000       0.583669        15.8824 
  82   0.0000       0.585279        15.9263 
  83   0.0000       0.614834        16.7305 
  84   0.0000       0.630958        17.1692 
  85   0.0000       0.652757        17.7624 
  86   0.0000       0.685848        18.6629 
  87   0.0000       0.723042        19.6750 
  88   0.0000       0.728703        19.8290 
  89   0.0000       0.771670        20.9982 
  90   0.0000       0.785882        21.3849 
  91   0.0000       0.787535        21.4299 
  92   0.0000       0.836495        22.7622 
  93   0.0000       0.838748        22.8235 
  94   0.0000       0.839936        22.8558 
  95   0.0000       0.882065        24.0022 
  96   0.0000       0.892142        24.2764 
  97   0.0000       0.942778        25.6543 
  98   0.0000       0.947178        25.7740 
  99   0.0000       0.970831        26.4177 
 100   0.0000       0.992921        27.0188 
 101   0.0000       0.998397        27.1678 
 102   0.0000       1.002829        27.2884 
 103   0.0000       1.056985        28.7620 
 104   0.0000       1.059246        28.8236 
 105   0.0000       1.081646        29.4331 
 106   0.0000       1.089739        29.6533 
 107   0.0000       1.101736        29.9798 
 108   0.0000       1.109402        30.1884 
 109   0.0000       1.116477        30.3809 
 110   0.0000       1.139568        31.0092 
 111   0.0000       1.163690        31.6656 
 112   0.0000       1.195530        32.5320 
 113   0.0000       1.212653        32.9980 
 114   0.0000       1.225902        33.3585 
 115   0.0000       1.227381        33.3987 
 116   0.0000       1.245911        33.9030 
 117   0.0000       1.264188        34.4003 
 118   0.0000       1.264565        34.4106 
 119   0.0000       1.286359        35.0036 
 120   0.0000       1.289222        35.0815 
 121   0.0000       1.300531        35.3892 
 122   0.0000       1.318205        35.8702 
 123   0.0000       1.322070        35.9753 
 124   0.0000       1.337603        36.3980 
 125   0.0000       1.347777        36.6749 
 126   0.0000       1.360084        37.0098 
 127   0.0000       1.362164        37.0664 
 128   0.0000       1.388185        37.7744 
 129   0.0000       1.391461        37.8636 
 130   0.0000       1.406563        38.2745 
 131   0.0000       1.433370        39.0040 
 132   0.0000       1.451055        39.4852 
 133   0.0000       1.463067        39.8121 
 134   0.0000       1.476720        40.1836 
 135   0.0000       1.479940        40.2712 
 136   0.0000       1.503482        40.9118 
 137   0.0000       1.523918        41.4679 
 138   0.0000       1.540506        41.9193 
 139   0.0000       1.553417        42.2706 
 140   0.0000       1.574795        42.8523 
 141   0.0000       1.578828        42.9621 
 142   0.0000       1.628274        44.3076 
 143   0.0000       1.630311        44.3630 
 144   0.0000       1.633352        44.4458 
 145   0.0000       1.675551        45.5941 
 146   0.0000       1.720917        46.8285 
 147   0.0000       1.724169        46.9170 
 148   0.0000       1.762662        47.9645 
 149   0.0000       1.764961        48.0270 
 150   0.0000       1.772716        48.2380 
 151   0.0000       1.806467        49.1565 
 152   0.0000       1.844763        50.1985 
 153   0.0000       1.871158        50.9168 
 154   0.0000       1.942049        52.8459 
 155   0.0000       1.944580        52.9147 
 156   0.0000       1.979369        53.8614 
 157   0.0000       1.985927        54.0398 
 158   0.0000       1.999335        54.4047 
 159   0.0000       2.053646        55.8826 
 160   0.0000       2.094883        57.0047 
 161   0.0000       2.111458        57.4557 
 162   0.0000       2.127817        57.9008 
 163   0.0000       2.166952        58.9657 
 164   0.0000       2.193100        59.6773 
 165   0.0000       2.244480        61.0754 
 166   0.0000       2.250041        61.2267 
 167   0.0000       2.394108        65.1470 
 168   0.0000       2.396024        65.1991 
 169   0.0000       2.445630        66.5490 
 170   0.0000       2.505500        68.1781 
 171   0.0000       2.533130        68.9300 
 172   0.0000       2.556488        69.5656 
 173   0.0000       2.603215        70.8371 
 174   0.0000       2.633201        71.6531 
 175   0.0000       2.663341        72.4732 
 176   0.0000       2.706733        73.6540 
 177   0.0000       2.739579        74.5477 
 178   0.0000       2.760133        75.1070 
 179   0.0000       2.775279        75.5192 
 180   0.0000       2.777924        75.5911 
 181   0.0000       2.848395        77.5088 
 182   0.0000       2.867692        78.0339 
 183   0.0000       2.885300        78.5130 
 184   0.0000       2.891424        78.6797 
 185   0.0000       2.900415        78.9243 
 186   0.0000       2.915549        79.3361 
 187   0.0000       2.939986        80.0011 
 188   0.0000       2.954622        80.3993 
 189   0.0000       2.961731        80.5928 
 190   0.0000       2.974235        80.9331 
 191   0.0000       3.017497        82.1103 
 192   0.0000       3.033360        82.5419 
 193   0.0000       3.104548        84.4791 
 194   0.0000       3.109200        84.6056 
 195   0.0000       3.135351        85.3172 
 196   0.0000       3.142420        85.5096 
 197   0.0000       3.162163        86.0468 
 198   0.0000       3.190567        86.8197 
 199   0.0000       3.192120        86.8620 
 200   0.0000       3.195345        86.9498 
 201   0.0000       3.204678        87.2037 
 202   0.0000       3.205031        87.2133 
 203   0.0000       3.237566        88.0986 
 204   0.0000       3.260986        88.7359 
 205   0.0000       3.270555        88.9963 
 206   0.0000       3.275876        89.1411 
 207   0.0000       3.302548        89.8669 
 208   0.0000       3.316290        90.2408 
 209   0.0000       3.330109        90.6169 
 210   0.0000       3.352366        91.2225 
 211   0.0000       3.359055        91.4045 
 212   0.0000       3.400733        92.5386 
 213   0.0000       3.404169        92.6321 
 214   0.0000       3.421547        93.1050 
 215   0.0000       3.451217        93.9124 
 216   0.0000       3.485088        94.8341 
 217   0.0000       3.499867        95.2362 
 218   0.0000       3.512558        95.5815 
 219   0.0000       3.543893        96.4342 
 220   0.0000       3.553194        96.6873 
 221   0.0000       3.555435        96.7483 
 222   0.0000       3.582859        97.4945 
 223   0.0000       3.608430        98.1904 
 224   0.0000       3.611273        98.2677 
 225   0.0000       3.617375        98.4338 
 226   0.0000       3.630992        98.8043 
 227   0.0000       3.656050        99.4862 
 228   0.0000       3.677873       100.0800 
 229   0.0000       3.691612       100.4539 
 230   0.0000       3.697593       100.6166 
 231   0.0000       3.733825       101.6025 
 232   0.0000       3.784928       102.9931 
 233   0.0000       3.799384       103.3865 
 234   0.0000       3.861261       105.0703 
 235   0.0000       3.868724       105.2733 
 236   0.0000       3.904529       106.2476 
 237   0.0000       3.923741       106.7704 
 238   0.0000       3.925491       106.8180 
 239   0.0000       3.942991       107.2942 
 240   0.0000       3.961632       107.8015 
 241   0.0000       3.995253       108.7164 
 242   0.0000       4.007749       109.0564 
 243   0.0000       4.011665       109.1629 
 244   0.0000       4.025387       109.5363 
 245   0.0000       4.035015       109.7983 
 246   0.0000       4.051798       110.2550 
 247   0.0000       4.061082       110.5076 
 248   0.0000       4.083651       111.1218 
 249   0.0000       4.088460       111.2527 
 250   0.0000       4.141405       112.6934 
 251   0.0000       4.164975       113.3347 
 252   0.0000       4.165988       113.3623 
 253   0.0000       4.216251       114.7300 
 254   0.0000       4.241750       115.4239 
 255   0.0000       4.257562       115.8542 
 256   0.0000       4.283642       116.5638 
 257   0.0000       4.295849       116.8960 
 258   0.0000       4.317025       117.4722 
 259   0.0000       4.320666       117.5713 
 260   0.0000       4.358002       118.5873 
 261   0.0000       4.377008       119.1045 
 262   0.0000       4.396779       119.6424 
 263   0.0000       4.404667       119.8571 
 264   0.0000       4.429836       120.5420 
 265   0.0000       4.440399       120.8294 
 266   0.0000       4.478854       121.8758 
 267   0.0000       4.528325       123.2220 
 268   0.0000       4.534045       123.3776 
 269   0.0000       4.563050       124.1669 
 270   0.0000       4.587291       124.8265 
 271   0.0000       4.638176       126.2112 
 272   0.0000       4.654677       126.6602 
 273   0.0000       4.667906       127.0202 
 274   0.0000       4.705105       128.0324 
 275   0.0000       4.753187       129.3408 
 276   0.0000       4.769595       129.7873 
 277   0.0000       4.781631       130.1148 
 278   0.0000       4.788833       130.3108 
 279   0.0000       4.803359       130.7060 
 280   0.0000       4.854772       132.1051 
 281   0.0000       4.864901       132.3807 
 282   0.0000       4.869062       132.4939 
 283   0.0000       4.942063       134.4804 
 284   0.0000       4.947501       134.6284 
 285   0.0000       4.962215       135.0287 
 286   0.0000       5.016928       136.5176 
 287   0.0000       5.050292       137.4254 
 288   0.0000       5.151623       140.1828 
 289   0.0000       5.152055       140.1945 
 290   0.0000       5.194225       141.3420 
 291   0.0000       5.226227       142.2129 
 292   0.0000       5.230502       142.3292 
 293   0.0000       5.251814       142.9091 
 294   0.0000       5.347237       145.5057 
 295   0.0000       5.357434       145.7832 
 296   0.0000       5.357740       145.7915 
 297   0.0000       5.385922       146.5584 
 298   0.0000       5.442934       148.1098 
 299   0.0000       5.468766       148.8127 
 300   0.0000       5.486535       149.2962 
 301   0.0000       5.551251       151.0572 
 302   0.0000       5.571730       151.6145 
 303   0.0000       5.707622       155.3123 
 304   0.0000       5.779689       157.2733 
 305   0.0000       5.860859       159.4821 
 306   0.0000       5.926626       161.2717 
 307   0.0000       6.009223       163.5193 
 308   0.0000       6.027362       164.0129 
 309   0.0000       6.340443       172.5322 
 310   0.0000       6.630004       180.4116 
 311   0.0000      22.759601       619.3202 
 312   0.0000      22.923027       623.7673 
 313   0.0000      23.205840       631.4630 
 314   0.0000      23.406877       636.9335 
 315   0.0000      23.608216       642.4122 
 316   0.0000      23.943546       651.5370 

                    ********************************
                    * MULLIKEN POPULATION ANALYSIS *
                    ********************************

-----------------------
MULLIKEN ATOMIC CHARGES
-----------------------
   0 K :    0.855421
   1 C :    0.014345
   2 C :   -0.383133
   3 C :   -0.391946
   4 H :   -0.036869
   5 H :    0.081014
   6 C :   -0.152768
   7 H :    0.078879
   8 C :   -0.151417
   9 H :    0.076737
  10 C :   -0.345773
  11 H :    0.103363
  12 H :    0.125360
  13 H :    0.126786
Sum of atomic charges:    0.0000000

--------------------------------
MULLIKEN REDUCED ORBITAL CHARGES
--------------------------------
  0 K s       :     6.042619  s :     6.042619
      pz      :     4.006221  p :    12.020658
      px      :     4.002904
      py      :     4.011533
      dz2     :     0.014731  d :     0.081301
      dxz     :     0.024540
      dyz     :     0.030749
      dx2y2   :     0.010637
      dxy     :     0.000644
  1 C s       :     3.124786  s :     3.124786
      pz      :     0.958160  p :     2.731124
      px      :     0.870058
      py      :     0.902907
      dz2     :     0.034029  d :     0.123708
      dxz     :     0.014591
      dyz     :     0.027104
      dx2y2   :     0.029568
      dxy     :     0.018417
      f0      :     0.001131  f :     0.006037
      f+1     :     0.000445
      f-1     :     0.000591
      f+2     :     0.000520
      f-2     :     0.000740
      f+3     :     0.001404
      f-3     :     0.001206
  2 C s       :     3.242221  s :     3.242221
      pz      :     1.153830  p :     3.044434
      px      :     1.003573
      py      :     0.887030
      dz2     :     0.004946  d :     0.089690
      dxz     :     0.004988
      dyz     :     0.020422
      dx2y2   :     0.025542
      dxy     :     0.033792
      f0      :     0.001145  f :     0.006789
      f+1     :     0.000665
      f-1     :     0.000639
      f+2     :     0.000724
      f-2     :     0.000655
      f+3     :     0.001932
      f-3     :     0.001028
  3 C s       :     3.243952  s :     3.243952
      pz      :     1.163844  p :     3.051581
      px      :     0.973739
      py      :     0.913998
      dz2     :     0.004577  d :     0.089656
      dxz     :     0.008372
      dyz     :     0.016931
      dx2y2   :     0.020481
      dxy     :     0.039295
      f0      :     0.001163  f :     0.006756
      f+1     :     0.000750
      f-1     :     0.000520
      f+2     :     0.000912
      f-2     :     0.000427
      f+3     :     0.002109
      f-3     :     0.000877
  4 H s       :     1.012060  s :     1.012060
      pz      :     0.012623  p :     0.023023
      px      :     0.004663
      py      :     0.005737
      dz2     :     0.000722  d :     0.001786
      dxz     :     0.000458
      dyz     :     0.000547
      dx2y2   :     0.000021
      dxy     :     0.000038
  5 H s       :     0.891081  s :     0.891081
      pz      :     0.006659  p :     0.025994
      px      :     0.005850
      py      :     0.013486
      dz2     :     0.000327  d :     0.001910
      dxz     :     0.000052
      dyz     :     0.000448
      dx2y2   :     0.000558
      dxy     :     0.000525
  6 C s       :     3.175705  s :     3.175705
      pz      :     0.938367  p :     2.839908
      px      :     0.995948
      py      :     0.905593
      dz2     :     0.003437  d :     0.129534
      dxz     :     0.010846
      dyz     :     0.039840
      dx2y2   :     0.037094
      dxy     :     0.038317
      f0      :     0.001484  f :     0.007621
      f+1     :     0.000560
      f-1     :     0.000372
      f+2     :     0.000971
      f-2     :     0.001103
      f+3     :     0.002232
      f-3     :     0.000899
  7 H s       :     0.875257  s :     0.875257
      pz      :     0.015162  p :     0.043346
      px      :     0.016632
      py      :     0.011551
      dz2     :     0.000159  d :     0.002518
      dxz     :     0.000537
      dyz     :     0.000445
      dx2y2   :     0.000921
      dxy     :     0.000457
  8 C s       :     3.173707  s :     3.173707
      pz      :     0.935276  p :     2.840515
      px      :     0.966275
      py      :     0.938965
      dz2     :     0.003926  d :     0.129552
      dxz     :     0.021240
      dyz     :     0.029486
      dx2y2   :     0.028527
      dxy     :     0.046373
      f0      :     0.001446  f :     0.007642
      f+1     :     0.000584
      f-1     :     0.000418
      f+2     :     0.001648
      f-2     :     0.000427
      f+3     :     0.002197
      f-3     :     0.000923
  9 H s       :     0.877603  s :     0.877603
      pz      :     0.014741  p :     0.043142
      px      :     0.019053
      py      :     0.009348
      dz2     :     0.000146  d :     0.002518
      dxz     :     0.000813
      dyz     :     0.000167
      dx2y2   :     0.000643
      dxy     :     0.000749
 10 C s       :     3.189377  s :     3.189377
      pz      :     1.265151  p :     3.057712
      px      :     0.844992
      py      :     0.947569
      dz2     :     0.004856  d :     0.091480
      dxz     :     0.016984
      dyz     :     0.006287
      dx2y2   :     0.037178
      dxy     :     0.026175
      f0      :     0.001321  f :     0.007204
      f+1     :     0.000585
      f-1     :     0.000621
      f+2     :     0.000399
      f-2     :     0.000974
      f+3     :     0.002304
      f-3     :     0.001001
 11 H s       :     0.852579  s :     0.852579
      pz      :     0.017126  p :     0.041524
      px      :     0.008560
      py      :     0.015838
      dz2     :     0.000179  d :     0.002534
      dxz     :     0.000056
      dyz     :     0.001033
      dx2y2   :     0.000434
      dxy     :     0.000832
 12 H s       :     0.835093  s :     0.835093
      pz      :     0.010543  p :     0.037268
      px      :     0.015094
      py      :     0.011631
      dz2     :     0.000116  d :     0.002278
      dxz     :     0.000418
      dyz     :     0.000330
      dx2y2   :     0.000955
      dxy     :     0.000459
 13 H s       :     0.833502  s :     0.833502
      pz      :     0.010839  p :     0.037430
      px      :     0.017202
      py      :     0.009390
      dz2     :     0.000123  d :     0.002281
      dxz     :     0.000605
      dyz     :     0.000151
      dx2y2   :     0.000678
      dxy     :     0.000726


                     *******************************
                     * LOEWDIN POPULATION ANALYSIS *
                     *******************************

----------------------
LOEWDIN ATOMIC CHARGES
----------------------
   0 K :    0.597538
   1 C :   -0.134967
   2 C :   -0.124753
   3 C :   -0.125125
   4 H :    0.007651
   5 H :    0.055596
   6 C :   -0.097367
   7 H :    0.004128
   8 C :   -0.097194
   9 H :    0.004407
  10 C :   -0.167588
  11 H :    0.006871
  12 H :    0.035543
  13 H :    0.035261

-------------------------------
LOEWDIN REDUCED ORBITAL CHARGES
-------------------------------
  0 K s       :     6.027534  s :     6.027534
      pz      :     4.026278  p :    12.089242
      px      :     4.027431
      py      :     4.035533
      dz2     :     0.051832  d :     0.285686
      dxz     :     0.097159
      dyz     :     0.094739
      dx2y2   :     0.031258
      dxy     :     0.010698
  1 C s       :     2.721241  s :     2.721241
      pz      :     0.951759  p :     2.902981
      px      :     0.998973
      py      :     0.952250
      dz2     :     0.123606  d :     0.467723
      dxz     :     0.058321
      dyz     :     0.081601
      dx2y2   :     0.115276
      dxy     :     0.088918
      f0      :     0.007055  f :     0.043021
      f+1     :     0.003811
      f-1     :     0.002725
      f+2     :     0.004904
      f-2     :     0.006785
      f+3     :     0.009750
      f-3     :     0.007991
  2 C s       :     2.706744  s :     2.706744
      pz      :     0.986305  p :     2.973771
      px      :     0.960631
      py      :     1.026835
      dz2     :     0.036558  d :     0.400412
      dxz     :     0.021304
      dyz     :     0.068987
      dx2y2   :     0.133978
      dxy     :     0.139585
      f0      :     0.002881  f :     0.043826
      f+1     :     0.003252
      f-1     :     0.004534
      f+2     :     0.004967
      f-2     :     0.004620
      f+3     :     0.013313
      f-3     :     0.010260
  3 C s       :     2.707563  s :     2.707563
      pz      :     0.989627  p :     2.976004
      px      :     0.958470
      py      :     1.027906
      dz2     :     0.034445  d :     0.398115
      dxz     :     0.036354
      dyz     :     0.053539
      dx2y2   :     0.106078
      dxy     :     0.167698
      f0      :     0.003025  f :     0.043443
      f+1     :     0.003529
      f-1     :     0.003836
      f+2     :     0.006368
      f-2     :     0.003086
      f+3     :     0.014538
      f-3     :     0.009061
  4 H s       :     0.868605  s :     0.868605
      pz      :     0.062690  p :     0.107629
      px      :     0.021271
      py      :     0.023668
      dz2     :     0.006846  d :     0.016114
      dxz     :     0.004199
      dyz     :     0.004612
      dx2y2   :     0.000144
      dxy     :     0.000314
  5 H s       :     0.827371  s :     0.827371
      pz      :     0.029558  p :     0.100346
      px      :     0.021828
      py      :     0.048960
      dz2     :     0.002540  d :     0.016687
      dxz     :     0.000536
      dyz     :     0.004740
      dx2y2   :     0.004751
      dxy     :     0.004120
  6 C s       :     2.691118  s :     2.691118
      pz      :     0.828111  p :     2.868697
      px      :     0.988690
      py      :     1.051896
      dz2     :     0.027868  d :     0.485726
      dxz     :     0.034109
      dyz     :     0.133551
      dx2y2   :     0.146715
      dxy     :     0.143483
      f0      :     0.002654  f :     0.051825
      f+1     :     0.003009
      f-1     :     0.003709
      f+2     :     0.007271
      f-2     :     0.007933
      f+3     :     0.016571
      f-3     :     0.010678
  7 H s       :     0.807708  s :     0.807708
      pz      :     0.056250  p :     0.159058
      px      :     0.057658
      py      :     0.045150
      dz2     :     0.002643  d :     0.029106
      dxz     :     0.005880
      dyz     :     0.003911
      dx2y2   :     0.008991
      dxy     :     0.007682
  8 C s       :     2.691032  s :     2.691032
      pz      :     0.827975  p :     2.868409
      px      :     1.004102
      py      :     1.036332
      dz2     :     0.029254  d :     0.485751
      dxz     :     0.069437
      dyz     :     0.096409
      dx2y2   :     0.115692
      dxy     :     0.174959
      f0      :     0.002583  f :     0.052003
      f+1     :     0.003465
      f-1     :     0.003563
      f+2     :     0.012383
      f-2     :     0.002815
      f+3     :     0.016120
      f-3     :     0.011074
  9 H s       :     0.807712  s :     0.807712
      pz      :     0.055520  p :     0.158723
      px      :     0.065805
      py      :     0.037398
      dz2     :     0.002510  d :     0.029158
      dxz     :     0.008531
      dyz     :     0.001253
      dx2y2   :     0.008362
      dxy     :     0.008502
 10 C s       :     2.686087  s :     2.686087
      pz      :     1.033010  p :     3.020057
      px      :     1.015128
      py      :     0.971919
      dz2     :     0.027856  d :     0.413419
      dxz     :     0.074028
      dyz     :     0.026329
      dx2y2   :     0.165975
      dxy     :     0.119231
[...]
     10      -0.051859  -0.021843   0.045508  -0.023027  -0.042375   0.054547
     11       0.005109  -0.010335  -0.008337  -0.043986   0.026937  -0.019792
     12      -0.268222   0.079817   0.010658   0.767242   0.484694   0.154942
     13      -0.046128   0.016550  -0.056892   0.127559   0.066505   0.021378
     14       0.008127  -0.002728   0.016634  -0.023364  -0.015679  -0.004669
     15      -0.066859  -0.415296  -0.007335  -0.489595   0.692429   0.154446
     16      -0.009310  -0.067722   0.064064  -0.080937   0.107526   0.023945
     17      -0.000697   0.013664  -0.067803   0.018314  -0.011863  -0.002406
     18      -0.061410  -0.004488  -0.009359   0.012654   0.030463   0.022525
     19      -0.020319   0.012297  -0.043464  -0.007328   0.084635   0.042571
     20      -0.007460   0.001629   0.002197   0.002028   0.003829   0.005114
     21       0.164107   0.267484  -0.290923  -0.098724   0.174980   0.203888
     22      -0.262701  -0.372371   0.410189   0.075612  -0.141434  -0.297011
     23       0.049477   0.067552  -0.076400  -0.011105  -0.007470   0.045153
     24      -0.061469   0.002512   0.023112   0.009441   0.055220   0.033507
     25       0.000976  -0.013480  -0.037794   0.011245  -0.070353  -0.032678
     26       0.010924  -0.000459   0.002555  -0.002946  -0.006128  -0.006990
     27       0.071649   0.137683   0.140275  -0.071640   0.123838   0.097310
     28       0.296765   0.452442   0.467123  -0.104157   0.196744   0.340270
     29      -0.047083  -0.068121  -0.074492   0.012395  -0.001106  -0.047695
     30       0.123343   0.004974   0.005207  -0.006306  -0.113930   0.084396
     31       0.021057  -0.000061  -0.030230  -0.001499  -0.018948   0.013464
     32      -0.002961  -0.000171   0.002274   0.000270   0.003419  -0.002504
     33       0.779514  -0.238247   0.007289   0.249283   0.202209  -0.426986
     34       0.126194  -0.038986  -0.031308   0.039339   0.031738  -0.068543
     35      -0.025115   0.009451  -0.023102  -0.008498  -0.007157   0.013651
     36      -0.155375   0.245979   0.293642  -0.088158   0.037682  -0.300988
     37       0.105344  -0.318492  -0.376580   0.124633  -0.040954   0.381599
     38      -0.011010  -0.029968  -0.031162  -0.009689   0.018597   0.038262
     39      -0.118743   0.129668  -0.168799  -0.044019   0.021863  -0.169286
     40      -0.152800   0.365003  -0.464084  -0.144831   0.051665  -0.458184
     41       0.017769   0.006630  -0.009376   0.014208  -0.020981  -0.023219
                 30         31         32         33         34         35    
      0       0.000016   0.000939  -0.000003   0.000711   0.000081   0.000006
      1       0.000038   0.000175  -0.000055   0.000077  -0.000499  -0.000007
      2       0.000057  -0.000017  -0.000097   0.000019  -0.000533   0.000076
      3       0.008206   0.119117   0.011277   0.021309   0.012161  -0.003444
      4      -0.051627   0.016398  -0.081357   0.005433  -0.071665   0.006981
      5       0.018329  -0.002020   0.045429  -0.001835   0.027437  -0.077827
      6       0.059529  -0.077910   0.005271  -0.002959  -0.027832   0.002252
      7       0.108870  -0.018754   0.017915   0.240980   0.285382   0.002230
      8      -0.028147  -0.002101   0.001413  -0.022509  -0.022498  -0.000462
      9      -0.090813  -0.080290  -0.007412   0.075508  -0.062035  -0.002788
     10       0.083171  -0.004706   0.012803  -0.234487   0.274732   0.001387
     11      -0.024110   0.006416   0.001987   0.021095  -0.021289  -0.000291
     12       0.011479  -0.449564  -0.097462  -0.281744   0.024980   0.044434
     13      -0.071534  -0.049416   0.677496  -0.053719  -0.176418  -0.095125
     14       0.014705   0.016392   0.095040   0.006536  -0.009000   0.990241
     15       0.016700  -0.274951  -0.049884  -0.356161   0.028612   0.001935
     16      -0.089663  -0.036636   0.233476  -0.059816  -0.160194  -0.019983
     17       0.086806  -0.012659  -0.672221   0.019866   0.230315  -0.040833
     18       0.082746   0.157602   0.002101  -0.035282  -0.026093  -0.000744
     19       0.062053   0.102756  -0.011502   0.225683  -0.322206  -0.001520
     20       0.011780   0.018448  -0.000529   0.007331  -0.013016   0.000032
     21       0.283398   0.101581   0.023916  -0.244852   0.239843  -0.000162
     22      -0.399889  -0.217098  -0.030822   0.144932  -0.070072   0.002946
     23       0.056077  -0.022692   0.009621  -0.077560   0.049921  -0.004965
     24      -0.097537   0.179416  -0.001166   0.034771   0.124948   0.001184
     25       0.032787  -0.049534  -0.013912  -0.220961  -0.303422  -0.001210
     26       0.017577  -0.028256  -0.000100  -0.007014  -0.017705  -0.000028
     27      -0.141644   0.027595  -0.013094  -0.178912  -0.206036  -0.001506
     28      -0.469459   0.233987  -0.039972  -0.208008  -0.143719   0.002858
     29       0.061666   0.021667   0.010330   0.083370   0.059645  -0.004899
     30       0.011075  -0.298237   0.002500   0.072047  -0.018675  -0.000234
     31      -0.070967  -0.048468   0.005116   0.010725   0.125350   0.001387
     32      -0.008016   0.008833  -0.002087  -0.002203   0.004906  -0.000217
     33       0.014088   0.545657  -0.009026  -0.477276  -0.027049  -0.000844
     34      -0.088062   0.086565   0.003327  -0.077341   0.137605   0.005113
     35      -0.009173  -0.018255   0.002265   0.014633   0.016005  -0.000840
     36       0.234113  -0.027916  -0.011459  -0.248195  -0.322393  -0.005302
     37      -0.396289   0.228878  -0.000333   0.100458   0.245763  -0.003855
     38      -0.036747   0.036060   0.005147   0.072355   0.098322  -0.001231
     39      -0.099470   0.044771   0.007338  -0.211230   0.229423   0.006195
     40      -0.444187  -0.225566   0.004251  -0.175642   0.327334  -0.001975
     41      -0.025578  -0.035599   0.004115  -0.058778   0.077870  -0.001561
                 36         37         38         39         40         41    
      0      -0.000000   0.000047  -0.000062   0.000037  -0.000004   0.000006
      1       0.000023  -0.000019  -0.000033   0.000011  -0.000002  -0.000019
      2       0.000003   0.000002  -0.000000  -0.000005  -0.000025   0.000027
      3      -0.011049   0.000075   0.000179  -0.001515   0.001479  -0.000189
      4       0.075251  -0.001186  -0.001328  -0.002083  -0.006057   0.001140
      5       0.032927  -0.000921  -0.000803  -0.000068  -0.000454   0.000072
      6       0.003388   0.000343   0.023011   0.064560   0.036688  -0.006466
      7      -0.002286  -0.000405  -0.006490  -0.028000  -0.015362   0.004039
      8      -0.000654  -0.000315  -0.004724  -0.013399  -0.007860   0.001555
      9      -0.002389  -0.015820   0.001725   0.030567  -0.054358   0.005586
     10      -0.003077  -0.009743   0.000746   0.027197  -0.047135   0.006425
     11      -0.000427  -0.002691   0.000022   0.005619  -0.010332   0.001336
     12      -0.003671  -0.000855   0.001658   0.002767  -0.000556  -0.000115
     13       0.021308  -0.000919  -0.000499  -0.000005  -0.001913   0.000532
     14      -0.008484   0.006054   0.005017  -0.001636  -0.003667  -0.001696
     15       0.133451  -0.001022  -0.002601   0.001852  -0.010220   0.001822
     16      -0.904756   0.012046   0.013074   0.018605   0.059350  -0.012182
     17      -0.388647   0.005593   0.005899   0.006350   0.021367  -0.004093
     18      -0.000247   0.075548  -0.004483   0.011783  -0.015576   0.014048
     19      -0.000326  -0.030225   0.002871  -0.005566   0.009462  -0.003508
     20       0.000108   0.009320  -0.000406   0.001360  -0.001702   0.001702
     21       0.035955   0.189469  -0.018746  -0.364852   0.642654  -0.068887
     22       0.032972   0.150688  -0.015898  -0.298153   0.519993  -0.058221
     23       0.005664   0.034556  -0.003883  -0.066108   0.116245  -0.012377
     24       0.000405  -0.003705  -0.060371   0.017659   0.007251  -0.012132
     25      -0.000141  -0.001919  -0.050937   0.017770   0.009088  -0.007678
     26       0.000089   0.000925   0.013275  -0.003829  -0.001588   0.002509
     27      -0.046640  -0.005750  -0.283632  -0.753083  -0.425191   0.073838
     28       0.020945   0.001493   0.106338   0.290202   0.161431  -0.030276
     29       0.008468   0.000782   0.058762   0.154677   0.087345  -0.015002
     30      -0.000062  -0.002732  -0.000052  -0.002363   0.002883   0.013261
     31       0.000337   0.009121   0.008107  -0.003992  -0.013324  -0.083485
     32       0.000027   0.000211   0.000073  -0.000022  -0.000490  -0.002764
     33       0.000711   0.022816   0.014294  -0.003417  -0.027057  -0.152180
     34      -0.004333  -0.127064  -0.108972   0.044927   0.164097   0.955106
     35       0.000174  -0.004199  -0.003396   0.001266   0.004969   0.022837
     36      -0.000406   0.038664   0.713073  -0.199559  -0.091672   0.111326
     37       0.000594   0.031120   0.589652  -0.169115  -0.078505   0.087560
     38       0.000375  -0.008427  -0.158182   0.043889   0.020594  -0.025472
     39      -0.000792  -0.885135   0.054879  -0.123245   0.169958  -0.134131
     40       0.001176   0.342788  -0.021996   0.049642  -0.069797   0.048026
     41       0.000205  -0.112212   0.007165  -0.015051   0.021336  -0.017812


-----------
IR SPECTRUM
-----------

 Mode   freq       eps      Int      T**2         TX        TY        TZ
       cm**-1   L/(mol*cm) km/mol    a.u.
----------------------------------------------------------------------------
  6:    106.35   0.001715    8.67  0.005032  (-0.015989  0.056792 -0.039379)
  7:    150.04   0.000449    2.27  0.000934  ( 0.028209  0.010993  0.004138)
  8:    193.26   0.003395   17.16  0.005482  (-0.005709  0.013646 -0.072551)
  9:    199.96   0.003373   17.04  0.005263  (-0.002277 -0.000021  0.072513)
 10:    439.64   0.002062   10.42  0.001464  (-0.037605 -0.006537 -0.002660)
 11:    491.91   0.021144  106.85  0.013413  (-0.003057  0.036021  0.110030)
 12:    565.55   0.033621  169.91  0.018552  (-0.004130  0.049485  0.126831)
 13:    600.04   0.000043    0.22  0.000022  (-0.004420 -0.001672  0.000222)
 14:    624.97   0.001338    6.76  0.000668  ( 0.003195 -0.011696  0.022831)
 15:    699.78   0.003700   18.70  0.001650  (-0.022017  0.002867  0.034016)
 16:    706.57   0.016320   82.47  0.007208  (-0.009592 -0.018354 -0.082333)
 17:    882.71   0.000031    0.16  0.000011  (-0.000343  0.001115  0.003126)
 18:    936.42   0.007955   40.20  0.002651  (-0.004243  0.036551  0.036013)
 19:    958.94   0.006901   34.87  0.002246  ( 0.046979  0.005693 -0.002498)
 20:    977.32   0.003357   16.97  0.001072  (-0.002159  0.032327  0.004723)
 21:    993.58   0.003733   18.86  0.001172  ( 0.033967  0.004263 -0.000697)
 22:   1000.93   0.012789   64.63  0.003987  ( 0.010568 -0.061956 -0.006080)
 23:   1073.63   0.001307    6.61  0.000380  (-0.000305  0.013898  0.013664)
 24:   1099.61   0.010787   54.51  0.003061  (-0.054471 -0.009535  0.001791)
 25:   1138.53   0.001269    6.41  0.000348  ( 0.018508  0.002282  0.000091)
 26:   1175.97   0.003673   18.56  0.000975  ( 0.004635 -0.030083 -0.006950)
 27:   1226.89   0.002838   14.34  0.000722  ( 0.026519  0.004155 -0.001163)
 28:   1329.53   0.036555  184.74  0.008580  ( 0.091337  0.015173 -0.002732)
 29:   1353.59   0.002012   10.17  0.000464  (-0.021044 -0.004391  0.001282)
 30:   1433.88   0.000224    1.13  0.000049  ( 0.000430 -0.002799  0.006376)
 31:   1460.04   0.042219  213.36  0.009024  ( 0.093722  0.015295 -0.002422)
 32:   1500.11   0.000958    4.84  0.000199  ( 0.002171 -0.013228  0.004416)
 33:   1557.97   0.029738  150.28  0.005957  ( 0.076149  0.012374 -0.002179)
 34:   1634.30   0.038404  194.08  0.007333  ( 0.013530 -0.083449 -0.013650)
 35:   2837.71   0.074906  378.55  0.008237  (-0.010595  0.052316 -0.073405)
 36:   3062.17   0.015276   77.20  0.001557  (-0.005971  0.038753  0.004401)
 37:   3140.36   0.006264   31.66  0.000623  ( 0.021927 -0.011884  0.000697)
 38:   3146.27   0.005162   26.09  0.000512  (-0.017267 -0.014531  0.001639)
 39:   3182.12   0.011144   56.32  0.001093  ( 0.032967  0.001218 -0.002129)
 40:   3185.23   0.002554   12.90  0.000250  (-0.006036 -0.014137 -0.003727)
 41:   3213.64   0.004109   20.76  0.000399  ( 0.003324 -0.019651  0.001336)

* The epsilon (eps) is given for a Dirac delta lineshape.
** The dipole moment derivative (T) already includes vibrational overlap.

The first frequency considered to be a vibration is 6
The total number of vibrations considered is 36


--------------------------
THERMOCHEMISTRY AT 298.15K
--------------------------

Temperature         ... 298.15 K
Pressure            ... 1.00 atm
Total Mass          ... 118.22 AMU

Throughout the following assumptions are being made:
  (1) The electronic state is orbitally nondegenerate
  (2) There are no thermally accessible electronically excited states
  (3) Hindered rotations indicated by low frequency modes are not
      treated as such but are treated as vibrations and this may
      cause some error
  (4) All equations used are the standard statistical mechanics
      equations for an ideal gas
  (5) All vibrations are strictly harmonic

freq.     106.35  E(vib)   ...       0.45 
freq.     150.04  E(vib)   ...       0.40 
freq.     193.26  E(vib)   ...       0.36 
freq.     199.96  E(vib)   ...       0.35 
freq.     439.64  E(vib)   ...       0.17 
freq.     491.91  E(vib)   ...       0.14 
freq.     565.55  E(vib)   ...       0.11 
freq.     600.04  E(vib)   ...       0.10 
freq.     624.97  E(vib)   ...       0.09 
freq.     699.78  E(vib)   ...       0.07 
freq.     706.57  E(vib)   ...       0.07 
freq.     882.71  E(vib)   ...       0.04 
freq.     936.42  E(vib)   ...       0.03 
freq.     958.94  E(vib)   ...       0.03 
freq.     977.32  E(vib)   ...       0.03 
freq.     993.58  E(vib)   ...       0.02 
freq.    1000.93  E(vib)   ...       0.02 
freq.    1073.63  E(vib)   ...       0.02 
freq.    1099.61  E(vib)   ...       0.02 
freq.    1138.53  E(vib)   ...       0.01 
freq.    1175.97  E(vib)   ...       0.01 
freq.    1226.89  E(vib)   ...       0.01 
freq.    1329.53  E(vib)   ...       0.01 
freq.    1353.59  E(vib)   ...       0.01 
freq.    1433.88  E(vib)   ...       0.00 
freq.    1460.04  E(vib)   ...       0.00 
freq.    1500.11  E(vib)   ...       0.00 
freq.    1557.97  E(vib)   ...       0.00 
freq.    1634.30  E(vib)   ...       0.00 
freq.    2837.71  E(vib)   ...       0.00 
freq.    3062.17  E(vib)   ...       0.00 
freq.    3140.36  E(vib)   ...       0.00 
freq.    3146.27  E(vib)   ...       0.00 
freq.    3182.12  E(vib)   ...       0.00 
freq.    3185.23  E(vib)   ...       0.00 
freq.    3213.64  E(vib)   ...       0.00 

------------
INNER ENERGY
------------

The inner energy is: U= E(el) + E(ZPE) + E(vib) + E(rot) + E(trans)
    E(el)   - is the total energy from the electronic structure calculation
              = E(kin-el) + E(nuc-el) + E(el-el) + E(nuc-nuc)
    E(ZPE)  - the the zero temperature vibrational energy from the frequency calculation
    E(vib)  - the the finite temperature correction to E(ZPE) due to population
              of excited vibrational states
    E(rot)  - is the rotational thermal energy
    E(trans)- is the translational thermal energy

Summary of contributions to the inner energy U:
Electronic energy                ...   -832.78239143 Eh
Zero point energy                ...      0.10998879 Eh      69.02 kcal/mol
Thermal vibrational correction   ...      0.00412333 Eh       2.59 kcal/mol
Thermal rotational correction    ...      0.00141627 Eh       0.89 kcal/mol
Thermal translational correction ...      0.00141627 Eh       0.89 kcal/mol
-----------------------------------------------------------------------
Total thermal energy                   -832.66544677 Eh


Summary of corrections to the electronic energy:
(perhaps to be used in another calculation)
Total thermal correction                  0.00695587 Eh       4.36 kcal/mol
Non-thermal (ZPE) correction              0.10998879 Eh      69.02 kcal/mol
-----------------------------------------------------------------------
Total correction                          0.11694466 Eh      73.38 kcal/mol


--------
ENTHALPY
--------

The enthalpy is H = U + kB*T
                kB is Boltzmann's constant
Total free energy                 ...   -832.66544677 Eh 
Thermal Enthalpy correction       ...      0.00094421 Eh       0.59 kcal/mol
-----------------------------------------------------------------------
Total Enthalpy                    ...   -832.66450256 Eh


Note: Only C1 symmetry has been detected, increase convergence thresholds 
      if your molecule has a higher symmetry. Symmetry factor of 1.0 is   
      used for the rotational entropy correction. 
 

Note: Rotational entropy computed according to Herzberg 
Infrared and Raman Spectra, Chapter V,1, Van Nostrand Reinhold, 1945 
Point Group:  C1, Symmetry Number:   1  
Rotational constants in cm-1:     0.095684     0.057820     0.057188 

Vibrational entropy computed according to the QRRHO of S. Grimme
Chem.Eur.J. 2012 18 9955


-------
ENTROPY
-------

The entropy contributions are T*S = T*(S(el)+S(vib)+S(rot)+S(trans))
     S(el)   - electronic entropy
     S(vib)  - vibrational entropy
     S(rot)  - rotational entropy
     S(trans)- translational entropy
The entropies will be listed as multiplied by the temperature to get
units of energy

Electronic entropy                ...      0.00000000 Eh      0.00 kcal/mol
Vibrational entropy               ...      0.00693501 Eh      4.35 kcal/mol
Rotational entropy                ...      0.01331517 Eh      8.36 kcal/mol
Translational entropy             ...      0.01910832 Eh     11.99 kcal/mol
-----------------------------------------------------------------------
Final entropy term                ...      0.03935849 Eh     24.70 kcal/mol

In case the symmetry of your molecule has not been determined correctly
or in case you have a reason to use a different symmetry number we print 
out the resulting rotational entropy values for sn=1,12 :
 --------------------------------------------------------
|  sn= 1 | S(rot)=       0.01331517 Eh      8.36 kcal/mol|
|  sn= 2 | S(rot)=       0.01266071 Eh      7.94 kcal/mol|
|  sn= 3 | S(rot)=       0.01227788 Eh      7.70 kcal/mol|
|  sn= 4 | S(rot)=       0.01200626 Eh      7.53 kcal/mol|
|  sn= 5 | S(rot)=       0.01179557 Eh      7.40 kcal/mol|
|  sn= 6 | S(rot)=       0.01162342 Eh      7.29 kcal/mol|
|  sn= 7 | S(rot)=       0.01147788 Eh      7.20 kcal/mol|
|  sn= 8 | S(rot)=       0.01135180 Eh      7.12 kcal/mol|
|  sn= 9 | S(rot)=       0.01124059 Eh      7.05 kcal/mol|
|  sn=10 | S(rot)=       0.01114111 Eh      6.99 kcal/mol|
|  sn=11 | S(rot)=       0.01105112 Eh      6.93 kcal/mol|
|  sn=12 | S(rot)=       0.01096897 Eh      6.88 kcal/mol|
 --------------------------------------------------------


-------------------
GIBBS FREE ENERGY
-------------------

The Gibbs free energy is G = H - T*S

Total enthalpy                    ...   -832.66450256 Eh 
Total entropy correction          ...     -0.03935849 Eh    -24.70 kcal/mol
-----------------------------------------------------------------------
Final Gibbs free energy         ...   -832.70386106 Eh

For completeness - the Gibbs free energy minus the electronic energy
G-E(el)                           ...      0.07853038 Eh     49.28 kcal/mol



Timings for individual modules:

Sum of individual times         ...     1551.547 sec (=  25.859 min)
GTO integral calculation        ...       30.225 sec (=   0.504 min)   1.9 %
SCF iterations                  ...      640.280 sec (=  10.671 min)  41.3 %
SCF Gradient evaluation         ...      118.065 sec (=   1.968 min)   7.6 %
Geometry relaxation             ...        1.559 sec (=   0.026 min)   0.1 %
Numerical frequency calculation ...      761.417 sec (=  12.690 min)  49.1 %
                             ****ORCA TERMINATED NORMALLY****
TOTAL RUN TIME: 0 days 0 hours 25 minutes 47 seconds 616 msec
