 Entering Gaussian System, Link 0=g16
 Input=Y000.gjf
 Output=Y000.log
 Initial command:
 /opt/software/gaussian/g16/l1.exe "/users/rkb19187/GAUSSTMP/Gau-2942664.inp" -scrdir="/users/rkb19187/GAUSSTMP/"
 Entering Link 1 = /opt/software/gaussian/g16/l1.exe PID=   2942665.
  
 Copyright (c) 1988-2019, Gaussian, Inc.  All Rights Reserved.
  
 This is part of the Gaussian(R) 16 program.  It is based on
 the Gaussian(R) 09 system (copyright 2009, Gaussian, Inc.),
 the Gaussian(R) 03 system (copyright 2003, Gaussian, Inc.),
 the Gaussian(R) 98 system (copyright 1998, Gaussian, Inc.),
 the Gaussian(R) 94 system (copyright 1995, Gaussian, Inc.),
 the Gaussian 92(TM) system (copyright 1992, Gaussian, Inc.),
 the Gaussian 90(TM) system (copyright 1990, Gaussian, Inc.),
 the Gaussian 88(TM) system (copyright 1988, Gaussian, Inc.),
 the Gaussian 86(TM) system (copyright 1986, Carnegie Mellon
 University), and the Gaussian 82(TM) system (copyright 1983,
 Carnegie Mellon University). Gaussian is a federally registered
 trademark of Gaussian, Inc.
  
 This software contains proprietary and confidential information,
 including trade secrets, belonging to Gaussian, Inc.
  
 This software is provided under written license and may be
 used, copied, transmitted, or stored only in accord with that
 written license.
  
 The following legend is applicable only to US Government
 contracts under FAR:
  
                    RESTRICTED RIGHTS LEGEND
  
 Use, reproduction and disclosure by the US Government is
 subject to restrictions as set forth in subparagraphs (a)
 and (c) of the Commercial Computer Software - Restricted
 Rights clause in FAR 52.227-19.
  
 Gaussian, Inc.
 340 Quinnipiac St., Bldg. 40, Wallingford CT 06492
  
  
 ---------------------------------------------------------------
 Warning -- This program may not be used in any manner that
 competes with the business of Gaussian, Inc. or will provide
 assistance to any competitor of Gaussian, Inc.  The licensee
 of this program is prohibited from giving any competitor of
 Gaussian, Inc. access to this program.  By using this program,
 the user acknowledges that Gaussian, Inc. is engaged in the
 business of creating and licensing software in the field of
 computational chemistry and represents and warrants to the
 licensee that it is not a competitor of Gaussian, Inc. and that
 it will not use this program in any manner prohibited above.
 ---------------------------------------------------------------
  

 Cite this work as:
 Gaussian 16, Revision C.01,
 M. J. Frisch, G. W. Trucks, H. B. Schlegel, G. E. Scuseria, 
 M. A. Robb, J. R. Cheeseman, G. Scalmani, V. Barone, 
 G. A. Petersson, H. Nakatsuji, X. Li, M. Caricato, A. V. Marenich, 
 J. Bloino, B. G. Janesko, R. Gomperts, B. Mennucci, H. P. Hratchian, 
 J. V. Ortiz, A. F. Izmaylov, J. L. Sonnenberg, D. Williams-Young, 
 F. Ding, F. Lipparini, F. Egidi, J. Goings, B. Peng, A. Petrone, 
 T. Henderson, D. Ranasinghe, V. G. Zakrzewski, J. Gao, N. Rega, 
 G. Zheng, W. Liang, M. Hada, M. Ehara, K. Toyota, R. Fukuda, 
 J. Hasegawa, M. Ishida, T. Nakajima, Y. Honda, O. Kitao, H. Nakai, 
 T. Vreven, K. Throssell, J. A. Montgomery, Jr., J. E. Peralta, 
 F. Ogliaro, M. J. Bearpark, J. J. Heyd, E. N. Brothers, K. N. Kudin, 
 V. N. Staroverov, T. A. Keith, R. Kobayashi, J. Normand, 
 K. Raghavachari, A. P. Rendell, J. C. Burant, S. S. Iyengar, 
 J. Tomasi, M. Cossi, J. M. Millam, M. Klene, C. Adamo, R. Cammi, 
 J. W. Ochterski, R. L. Martin, K. Morokuma, O. Farkas, 
 J. B. Foresman, and D. J. Fox, Gaussian, Inc., Wallingford CT, 2019.
 
 ******************************************
 Gaussian 16:  ES64L-G16RevC.01  3-Jul-2019
                18-Feb-2025 
 ******************************************
 %chk=/users/rkb19187/Downloads/Hamish/Desktop/FE00/Y000/Y000.chk
 %NProcShared=10
 Will use up to   10 processors via shared memory.
 %mem=40GB
 ----------------------------------------------
 # wb97x/6-31g* force integral=(grid=ultrafine)
 ----------------------------------------------
 1/10=7,30=1,38=1/1,3;
 2/12=2,17=6,18=5,40=1/2;
 3/5=1,6=6,7=1,11=2,25=1,30=1,71=1,74=-57,75=-5/1,2,3;
 4//1;
 5/5=2,38=5/2;
 6/7=2,8=2,9=2,10=2,28=1/1;
 7/29=1/1,2,3,16;
 1/10=7,30=1/3;
 99//99;
 ----------------------------
 ANI1x compatible calculation
 ----------------------------
 Symbolic Z-matrix:
 Charge =  0 Multiplicity = 1
 C                    -0.175     2.93     -0.837 
 H                     0.596     2.24     -1.188 
 H                     0.203     3.417     0.067 
 H                    -0.368     3.683    -1.601 
 C                    -1.498     2.2      -0.597 
 O                    -2.464     2.385    -1.317 
 N                    -1.507     1.313     0.461 
 C                    -2.789     0.724     0.845 
 H                    -3.049     1.029     1.864 
 H                    -3.548     1.102     0.16 
 C                    -2.697    -0.797     0.887 
 N                    -2.714    -1.477    -0.299 
 O                    -2.552    -1.362     1.981 
 C                    -2.913    -0.889    -1.615 
 H                    -2.099    -1.204    -2.278 
 H                    -3.859    -1.241    -2.045 
 H                    -2.92      0.199    -1.578 
 C                    -2.599    -2.927    -0.276 
 H                    -1.747    -3.244    -0.887 
 H                    -2.454    -3.243     0.755 
 H                    -3.509    -3.384    -0.68 
 C                    -0.391     1.119     1.392 
 H                    -0.113     2.071     1.866 
 H                    -0.772     0.467     2.185 
 C                     0.828     0.483     0.766 
 C                     2.112     0.932     1.098 
 C                     0.703    -0.612    -0.096 
 C                     3.248     0.321     0.574 
 H                     2.23      1.786     1.764 
 C                     1.833    -1.228    -0.633 
 H                    -0.288    -0.975    -0.359 
 C                     3.108    -0.768    -0.292 
 H                     4.247     0.67      0.82 
 H                     1.721    -2.078    -1.306 
 O                     4.262    -1.33     -0.78 
 H                     4.021    -2.072    -1.361 
 

 GradGradGradGradGradGradGradGradGradGradGradGradGradGradGradGradGradGrad
 Berny optimization.
 Initialization pass.
 Trust Radius=3.00D-01 FncErr=1.00D-07 GrdErr=1.00D-07 EigMax=2.50D+02 EigMin=1.00D-04
 Number of steps in this run=      2 maximum allowed number of steps=      2.
 GradGradGradGradGradGradGradGradGradGradGradGradGradGradGradGradGradGrad

                          Input orientation:                          
 ---------------------------------------------------------------------
 Center     Atomic      Atomic             Coordinates (Angstroms)
 Number     Number       Type             X           Y           Z
 ---------------------------------------------------------------------
      1          6           0       -0.175000    2.930000   -0.837000
      2          1           0        0.596000    2.240000   -1.188000
      3          1           0        0.203000    3.417000    0.067000
      4          1           0       -0.368000    3.683000   -1.601000
      5          6           0       -1.498000    2.200000   -0.597000
      6          8           0       -2.464000    2.385000   -1.317000
      7          7           0       -1.507000    1.313000    0.461000
      8          6           0       -2.789000    0.724000    0.845000
      9          1           0       -3.049000    1.029000    1.864000
     10          1           0       -3.548000    1.102000    0.160000
     11          6           0       -2.697000   -0.797000    0.887000
     12          7           0       -2.714000   -1.477000   -0.299000
     13          8           0       -2.552000   -1.362000    1.981000
     14          6           0       -2.913000   -0.889000   -1.615000
     15          1           0       -2.099000   -1.204000   -2.278000
     16          1           0       -3.859000   -1.241000   -2.045000
     17          1           0       -2.920000    0.199000   -1.578000
     18          6           0       -2.599000   -2.927000   -0.276000
     19          1           0       -1.747000   -3.244000   -0.887000
     20          1           0       -2.454000   -3.243000    0.755000
     21          1           0       -3.509000   -3.384000   -0.680000
     22          6           0       -0.391000    1.119000    1.392000
     23          1           0       -0.113000    2.071000    1.866000
     24          1           0       -0.772000    0.467000    2.185000
     25          6           0        0.828000    0.483000    0.766000
     26          6           0        2.112000    0.932000    1.098000
     27          6           0        0.703000   -0.612000   -0.096000
     28          6           0        3.248000    0.321000    0.574000
     29          1           0        2.230000    1.786000    1.764000
     30          6           0        1.833000   -1.228000   -0.633000
     31          1           0       -0.288000   -0.975000   -0.359000
     32          6           0        3.108000   -0.768000   -0.292000
     33          1           0        4.247000    0.670000    0.820000
     34          1           0        1.721000   -2.078000   -1.306000
     35          8           0        4.262000   -1.330000   -0.780000
     36          1           0        4.021000   -2.072000   -1.361000
 ---------------------------------------------------------------------
                    Distance matrix (angstroms):
                    1          2          3          4          5
     1  C    0.000000
     2  H    1.092585   0.000000
     3  H    1.094198   1.764880   0.000000
     4  H    1.089933   1.783848   1.782981   0.000000
     5  C    1.529977   2.176170   2.194399   2.117594   0.000000
     6  O    2.401447   3.066148   3.177006   2.481668   1.218926
     7  N    2.464491   2.828628   2.739736   3.341566   1.380657
     8  C    3.811634   4.229606   4.099951   4.538705   2.434054
     9  H    4.378251   4.905838   4.416702   5.122275   3.135819
    10  H    3.963928   4.503874   4.408841   4.458148   2.445640
    11  C    4.819044   4.936886   5.180753   5.628924   3.552727
    12  N    5.114452   5.055938   5.709123   5.815885   3.884300
    13  O    5.657961   5.738194   5.838858   6.561448   4.521598
    14  C    4.763055   4.720811   5.574963   5.232629   3.546896
    15  H    4.782072   4.506913   5.670262   5.228524   3.843719
    16  H    5.694591   5.718290   6.531260   6.052272   4.417183
    17  H    3.942394   4.084120   4.776471   4.318737   2.643567
    18  C    6.363564   6.143098   6.943716   7.101062   5.253701
    19  H    6.371182   5.971139   7.005822   7.098927   5.457402
    20  H    6.770099   6.568184   7.203374   7.607339   5.689296
    21  H    7.141905   6.981294   7.783994   7.788236   5.935661
    22  C    2.880073   2.981142   2.718320   3.941151   2.519947
    23  H    2.836888   3.139770   2.268915   3.831926   2.828646
    24  H    3.944016   4.048714   3.760193   4.983941   3.357066
    25  C    3.092479   2.637990   3.080192   4.156093   3.196269
    26  C    3.600916   3.038900   3.298859   4.582903   4.184848
    27  C    3.723672   3.055784   4.063177   4.675371   3.605932
    28  C    4.529319   3.717568   4.371989   5.395287   5.237022
    29  H    3.722628   3.404464   3.106236   4.655259   4.432122
    30  C    4.621974   3.723603   4.972215   5.468030   4.779962
    31  H    3.935769   3.435829   4.439845   4.821403   3.406078
    32  C    4.974969   4.020078   5.107067   5.797194   5.487922
    33  H    5.235202   4.452726   4.946408   6.019771   6.111777
    34  H    5.375392   4.463706   5.863828   6.135150   5.400549
    35  O    6.151245   5.133315   6.302928   6.873217   6.758106
    36  H    6.549885   5.509437   6.837063   7.241612   7.020900
                    6          7          8          9         10
     6  O    0.000000
     7  N    2.286114   0.000000
     8  C    2.745686   1.462156   0.000000
     9  H    3.507096   2.104003   1.094982   0.000000
    10  H    2.236666   2.073838   1.090041   1.777061   0.000000
    11  C    3.877761   2.459609   1.524359   2.100645   2.204298
    12  N    4.001733   3.133456   2.481685   3.327286   2.749087
    13  O    4.992450   3.249315   2.387061   2.444909   3.221700
    14  C    3.318054   3.336977   2.944273   3.975005   2.741885
    15  H    3.733319   3.766680   3.734490   4.800516   3.655281
    16  H    3.952706   4.281922   3.654891   4.592307   3.232398
    17  H    2.248256   2.719391   2.482683   3.543008   2.056803
    18  C    5.414725   4.439959   3.823943   4.520181   4.162156
    19  H    5.690749   4.758251   4.453158   5.246116   4.819494
    20  H    5.997305   4.662658   3.982137   4.453526   4.519943
    21  H    5.897386   5.231796   4.440686   5.114500   4.564134
    22  C    3.638512   1.466238   2.491112   2.701083   3.388918
    23  H    3.969545   2.119393   3.165095   3.115424   3.955834
    24  H    4.336541   2.056238   2.435146   2.367195   3.494285
    25  C    4.335177   2.496828   3.625881   4.066307   4.460916
    26  C    5.374310   3.694332   4.911932   5.218437   5.739716
    27  C    4.527995   2.983282   3.855443   4.540042   4.590679
    28  C    6.361047   4.858689   6.056502   6.466651   6.853245
    29  H    5.646680   3.985813   5.211791   5.333938   6.035392
    30  C    5.655602   4.336948   5.230456   5.929838   5.917171
    31  H    4.116107   2.719063   3.254415   4.071961   3.900114
    32  C    6.483766   5.118183   6.188170   6.766550   6.928459
    33  H    7.248829   5.800935   7.036252   7.379054   7.834810
    34  H    6.118228   5.004114   5.728709   6.515769   6.326446
    35  O    7.702511   6.465825   7.521711   8.124429   8.233731
    36  H    7.869054   6.733253   7.685060   8.366703   8.347304
                   11         12         13         14         15
    11  C    0.000000
    12  N    1.367218   0.000000
    13  O    1.239793   2.288639   0.000000
    14  C    2.512991   1.455061   3.644896   0.000000
    15  H    3.246610   2.090262   4.285937   1.096080   0.000000
    16  H    3.184965   2.101247   4.234568   1.097142   1.775742
    17  H    2.667952   2.118314   3.903668   1.088651   1.769873
    18  C    2.428801   1.454735   2.746904   2.458650   2.688258
    19  H    3.168183   2.098362   3.523545   2.726823   2.494070
    20  H    2.461583   2.072986   2.247408   3.371780   3.671871
    21  H    3.131677   2.100913   3.476385   2.730287   3.048623
    22  C    3.040348   3.872341   3.342485   4.408469   4.667172
    23  H    3.982577   4.903135   4.212771   5.359008   5.642921
    24  H    2.643506   3.704154   2.560324   4.567561   4.946872
    25  C    3.752155   4.185880   4.037902   4.641834   4.547443
    26  C    5.114728   5.571819   5.272098   5.993917   5.804515
    27  C    3.544082   3.530626   3.933377   3.931863   3.600388
    28  C    6.057303   6.288114   6.200979   6.649341   6.248995
    29  H    5.631727   6.272661   5.729269   6.709971   6.634614
    30  C    4.797610   4.566045   5.106778   4.858370   4.262303
    31  H    2.717992   2.478120   3.278882   2.911281   2.648532
    32  C    5.923589   5.865016   6.128211   6.165826   5.589914
    33  H    7.097585   7.370027   7.190504   7.721743   7.306244
    34  H    5.095972   4.587426   5.438341   4.794075   4.037457
    35  O    7.175699   6.994108   7.352193   7.236873   6.536222
    36  H    7.197962   6.844128   7.407928   7.038776   6.248897
                   16         17         18         19         20
    16  H    0.000000
    17  H    1.781407   0.000000
    18  C    2.749465   3.401488   0.000000
    19  H    3.132653   3.702386   1.095315   0.000000
    20  H    3.717799   4.184186   1.088045   1.787740   0.000000
    21  H    2.564795   3.740483   1.095521   1.779633   1.786654
    22  C    5.423061   4.007885   4.901796   5.105717   4.867112
    23  H    6.348053   4.821283   5.978994   6.204691   5.912123
    24  H    5.508152   4.341186   4.573148   4.915214   4.317189
    25  C    5.730782   4.429729   4.945523   4.822195   4.965352
    26  C    7.088951   5.746241   6.242858   6.022548   6.196501
    27  C    5.000609   3.997521   4.036685   3.681794   4.196786
    28  C    7.733592   6.533775   6.742360   6.308230   6.726638
    29  H    7.794045   6.341138   7.049341   6.938676   6.946134
    30  C    5.864535   5.051768   4.759903   4.116451   4.936105
    31  H    3.957953   3.129163   3.026205   2.748786   3.328119
    32  C    7.199710   6.239044   6.101753   5.482301   6.177190
    33  H    8.807235   7.572195   7.810720   7.359435   7.760103
    34  H    5.690614   5.176639   4.521515   3.682681   4.799539
    35  O    8.219415   7.386188   7.062418   6.307371   7.149857
    36  H    7.953164   7.306299   6.762592   5.904920   6.911897
                   21         22         23         24         25
    21  H    0.000000
    22  C    5.855947   0.000000
    23  H    6.911726   1.099211   0.000000
    24  H    5.525359   1.095041   1.763195   0.000000
    25  C    5.987836   1.510739   2.148773   2.138648   0.000000
    26  C    7.306489   2.527136   2.614913   3.116930   1.400172
    27  C    5.076021   2.531273   3.422541   2.922811   1.399176
    28  C    7.807470   3.814217   4.003509   4.333248   2.433004
    29  H    8.101738   2.730003   2.362473   3.305905   2.158568
    30  C    5.760860   3.815129   4.573327   4.195256   2.427910
    31  H    4.034992   2.731565   3.776158   2.964044   2.153333
    32  C    7.125917   4.317363   4.805385   4.766042   2.807626
    33  H    8.879215   4.694660   4.697501   5.205266   3.424536
    34  H    5.426823   4.686209   5.535282   4.987901   3.413115
    35  O    8.038492   5.689077   6.140745   6.112413   4.179646
    36  H    7.673722   6.101412   6.683407   6.480238   4.609490
                   26         27         28         29         30
    26  C    0.000000
    27  C    2.407250   0.000000
    28  C    1.392262   2.792206   0.000000
    29  H    1.089402   3.397313   2.144446   0.000000
    30  C    2.782050   1.394534   2.420429   3.871358   0.000000
    31  H    3.394039   1.087667   3.879871   4.297741   2.153538
    32  C    2.411248   2.418011   1.398384   3.394250   1.397679
    33  H    2.168906   3.878468   1.086425   2.490960   3.397206
    34  H    3.871976   2.156289   3.409007   4.961298   1.089942
    35  O    3.642256   3.694572   2.363750   4.506708   2.435581
    36  H    4.326081   3.839394   3.173043   5.278018   2.455537
                   31         32         33         34         35
    31  H    0.000000
    32  C    3.402963   0.000000
    33  H    4.966114   2.145160   0.000000
    34  H    2.479818   2.160571   4.295586   0.000000
    35  O    4.583205   1.373209   2.561294   2.700530   0.000000
    36  H    4.557948   1.917484   3.510897   2.300665   0.972731
                   36
    36  H    0.000000
 Stoichiometry    C13H18N2O3
 Framework group  C1[X(C13H18N2O3)]
 Deg. of freedom   102
 Full point group                 C1      NOp   1
 Largest Abelian subgroup         C1      NOp   1
 Largest concise Abelian subgroup C1      NOp   1
                         Standard orientation:                         
 ---------------------------------------------------------------------
 Center     Atomic      Atomic             Coordinates (Angstroms)
 Number     Number       Type             X           Y           Z
 ---------------------------------------------------------------------
      1          6           0        0.229176    2.896178   -0.865252
      2          1           0        1.005238    2.208641   -1.209871
      3          1           0        0.598637    3.385249    0.041157
      4          1           0        0.039255    3.647870   -1.631309
      5          6           0       -1.092991    2.161673   -0.634594
      6          8           0       -2.054201    2.342655   -1.361989
      7          7           0       -1.106798    1.275501    0.424048
      8          6           0       -2.389551    0.682256    0.798892
      9          1           0       -2.658287    0.987153    1.815654
     10          1           0       -3.144715    1.057002    0.107891
     11          6           0       -2.292471   -0.838372    0.842851
     12          7           0       -2.298139   -1.519386   -0.342675
     13          8           0       -2.153697   -1.401970    1.938381
     14          6           0       -2.489323   -0.933160   -1.660624
     15          1           0       -1.669248   -1.245799   -2.317224
     16          1           0       -3.430808   -1.288869   -2.097429
     17          1           0       -2.500463    0.154837   -1.624585
     18          6           0       -2.178169   -2.968949   -0.317602
     19          1           0       -1.320479   -3.283411   -0.921916
     20          1           0       -2.039805   -3.283599    0.714722
     21          1           0       -3.083477   -3.429508   -0.728049
     22          6           0        0.002851    1.086222    1.363571
     23          1           0        0.273898    2.039587    1.838853
     24          1           0       -0.381784    0.433512    2.154229
     25          6           0        1.228774    0.454055    0.747282
     26          6           0        2.508639    0.907886    1.088550
     27          6           0        1.114147   -0.642078   -0.114719
     28          6           0        3.650709    0.300506    0.573613
     29          1           0        2.618596    1.762838    1.754705
     30          6           0        2.250332   -1.254490   -0.642696
     31          1           0        0.126447   -1.008812   -0.384857
     32          6           0        3.521091   -0.789684   -0.292506
     33          1           0        4.646586    0.653254    0.826824
     34          1           0        2.146413   -2.105426   -1.315809
     35          8           0        4.680715   -1.347971   -0.771349
     36          1           0        4.446726   -2.091292   -1.353525
 ---------------------------------------------------------------------
 Rotational constants (GHZ):           0.5653621           0.2962754           0.2424803
 Standard basis: 6-31G(d) (6D, 7F)
 There are   306 symmetry adapted cartesian basis functions of A   symmetry.
 There are   306 symmetry adapted basis functions of A   symmetry.
   306 basis functions,   576 primitive gaussians,   306 cartesian basis functions
    67 alpha electrons       67 beta electrons
       nuclear repulsion energy      1377.7218213869 Hartrees.
 NAtoms=   36 NActive=   36 NUniq=   36 SFac= 1.00D+00 NAtFMM=   60 NAOKFM=F Big=F
 Integral buffers will be    131072 words long.
 Raffenetti 2 integral format.
 Two-electron integral symmetry is turned on.
 One-electron integrals computed using PRISM.
 NBasis=   306 RedAO= T EigKep=  4.11D-04  NBF=   306
 NBsUse=   306 1.00D-06 EigRej= -1.00D+00 NBFU=   306
 ExpMin= 1.61D-01 ExpMax= 5.48D+03 ExpMxC= 8.25D+02 IAcc=3 IRadAn=         5 AccDes= 0.00D+00
 Harris functional with IExCor= 4538 and IRadAn=       5 diagonalized for initial guess.
 HarFok:  IExCor= 4538 AccDes= 0.00D+00 IRadAn=         5 IDoV= 1 UseB2=F ITyADJ=14
 ICtDFT=  3500011 ScaDFX=  1.000000  1.000000  1.000000  1.000000
 FoFCou: FMM=F IPFlag=           0 FMFlag=      100000 FMFlg1=           0
         NFxFlg=           0 DoJE=T BraDBF=F KetDBF=T FulRan=T
         wScrn=  0.000000 ICntrl=       500 IOpCl=  0 I1Cent=   200000004 NGrid=           0
         NMat0=    1 NMatS0=      1 NMatT0=    0 NMatD0=    1 NMtDS0=    0 NMtDT0=    0
 Petite list used in FoFCou.
 Requested convergence on RMS density matrix=1.00D-08 within 128 cycles.
 Requested convergence on MAX density matrix=1.00D-06.
 Requested convergence on             energy=1.00D-06.
 No special actions if energy rises.
 Integral accuracy reduced to 1.0D-05 until final iterations.
 Initial convergence to 1.0D-05 achieved.  Increase integral accuracy.
 SCF Done:  E(RwB97X) =  -841.208802925     A.U. after   15 cycles
            NFock= 15  Conv=0.96D-08     -V/T= 2.0095

 **********************************************************************

            Population analysis using the SCF Density.

 **********************************************************************

 Orbital symmetries:
       Occupied  (A) (A) (A) (A) (A) (A) (A) (A) (A) (A) (A) (A)
                 (A) (A) (A) (A) (A) (A) (A) (A) (A) (A) (A) (A)
                 (A) (A) (A) (A) (A) (A) (A) (A) (A) (A) (A) (A)
                 (A) (A) (A) (A) (A) (A) (A) (A) (A) (A) (A) (A)
                 (A) (A) (A) (A) (A) (A) (A) (A) (A) (A) (A) (A)
                 (A) (A) (A) (A) (A) (A) (A)
       Virtual   (A) (A) (A) (A) (A) (A) (A) (A) (A) (A) (A) (A)
                 (A) (A) (A) (A) (A) (A) (A) (A) (A) (A) (A) (A)
                 (A) (A) (A) (A) (A) (A) (A) (A) (A) (A) (A) (A)
                 (A) (A) (A) (A) (A) (A) (A) (A) (A) (A) (A) (A)
                 (A) (A) (A) (A) (A) (A) (A) (A) (A) (A) (A) (A)
                 (A) (A) (A) (A) (A) (A) (A) (A) (A) (A) (A) (A)
                 (A) (A) (A) (A) (A) (A) (A) (A) (A) (A) (A) (A)
                 (A) (A) (A) (A) (A) (A) (A) (A) (A) (A) (A) (A)
                 (A) (A) (A) (A) (A) (A) (A) (A) (A) (A) (A) (A)
                 (A) (A) (A) (A) (A) (A) (A) (A) (A) (A) (A) (A)
                 (A) (A) (A) (A) (A) (A) (A) (A) (A) (A) (A) (A)
                 (A) (A) (A) (A) (A) (A) (A) (A) (A) (A) (A) (A)
                 (A) (A) (A) (A) (A) (A) (A) (A) (A) (A) (A) (A)
                 (A) (A) (A) (A) (A) (A) (A) (A) (A) (A) (A) (A)
                 (A) (A) (A) (A) (A) (A) (A) (A) (A) (A) (A) (A)
                 (A) (A) (A) (A) (A) (A) (A) (A) (A) (A) (A) (A)
                 (A) (A) (A) (A) (A) (A) (A) (A) (A) (A) (A) (A)
                 (A) (A) (A) (A) (A) (A) (A) (A) (A) (A) (A) (A)
                 (A) (A) (A) (A) (A) (A) (A) (A) (A) (A) (A) (A)
                 (A) (A) (A) (A) (A) (A) (A) (A) (A) (A) (A)
 The electronic state is 1-A.
 Alpha  occ. eigenvalues --  -19.25215 -19.18605 -19.17930 -14.44858 -14.44827
 Alpha  occ. eigenvalues --  -10.37918 -10.37367 -10.34210 -10.31705 -10.30850
 Alpha  occ. eigenvalues --  -10.30208 -10.29751 -10.28478 -10.28365 -10.28314
 Alpha  occ. eigenvalues --  -10.28283 -10.27629 -10.27115  -1.18837  -1.17071
 Alpha  occ. eigenvalues --   -1.15638  -1.07069  -1.06302  -0.99181  -0.90785
 Alpha  occ. eigenvalues --   -0.88595  -0.88445  -0.85601  -0.84250  -0.81838
 Alpha  occ. eigenvalues --   -0.79946  -0.75106  -0.72331  -0.67357  -0.66376
 Alpha  occ. eigenvalues --   -0.65531  -0.63265  -0.61971  -0.60264  -0.59664
 Alpha  occ. eigenvalues --   -0.58805  -0.57856  -0.56766  -0.56018  -0.54573
 Alpha  occ. eigenvalues --   -0.53497  -0.53062  -0.52252  -0.51939  -0.51267
 Alpha  occ. eigenvalues --   -0.51215  -0.51188  -0.50765  -0.49780  -0.48781
 Alpha  occ. eigenvalues --   -0.48179  -0.47060  -0.46742  -0.45773  -0.44436
 Alpha  occ. eigenvalues --   -0.43996  -0.36330  -0.35829  -0.35226  -0.34191
 Alpha  occ. eigenvalues --   -0.33470  -0.30967
 Alpha virt. eigenvalues --    0.07114   0.08535   0.10455   0.11998   0.15653
 Alpha virt. eigenvalues --    0.16360   0.17961   0.20025   0.21779   0.23026
 Alpha virt. eigenvalues --    0.23568   0.23918   0.24307   0.24644   0.25604
 Alpha virt. eigenvalues --    0.25933   0.26465   0.26652   0.27260   0.27752
 Alpha virt. eigenvalues --    0.28423   0.29198   0.29261   0.30472   0.31023
 Alpha virt. eigenvalues --    0.32209   0.33026   0.33983   0.35327   0.36196
 Alpha virt. eigenvalues --    0.37024   0.40966   0.42359   0.42868   0.44066
 Alpha virt. eigenvalues --    0.44950   0.46144   0.48053   0.51473   0.57101
 Alpha virt. eigenvalues --    0.58638   0.59292   0.60016   0.61109   0.61703
 Alpha virt. eigenvalues --    0.62104   0.62914   0.64032   0.64295   0.65428
 Alpha virt. eigenvalues --    0.66050   0.67906   0.68635   0.70544   0.70681
 Alpha virt. eigenvalues --    0.71393   0.72202   0.73528   0.74366   0.74741
 Alpha virt. eigenvalues --    0.76334   0.77236   0.77518   0.78837   0.79533
 Alpha virt. eigenvalues --    0.81527   0.82199   0.84349   0.84681   0.85397
 Alpha virt. eigenvalues --    0.86201   0.86603   0.88296   0.88648   0.91786
 Alpha virt. eigenvalues --    0.92062   0.92948   0.94016   0.94958   0.95227
 Alpha virt. eigenvalues --    0.96826   0.97478   0.98018   0.98597   0.99502
 Alpha virt. eigenvalues --    0.99928   1.00816   1.01335   1.02091   1.02677
 Alpha virt. eigenvalues --    1.03572   1.04896   1.05500   1.06539   1.07287
 Alpha virt. eigenvalues --    1.07346   1.08768   1.09867   1.10222   1.10583
 Alpha virt. eigenvalues --    1.11314   1.13497   1.14557   1.16256   1.18326
 Alpha virt. eigenvalues --    1.19904   1.22597   1.23027   1.24194   1.26558
 Alpha virt. eigenvalues --    1.27535   1.30441   1.32425   1.33142   1.34582
 Alpha virt. eigenvalues --    1.36546   1.37888   1.40488   1.41592   1.42802
 Alpha virt. eigenvalues --    1.46299   1.47598   1.50265   1.51283   1.52059
 Alpha virt. eigenvalues --    1.53147   1.53343   1.54342   1.55408   1.56042
 Alpha virt. eigenvalues --    1.57219   1.58260   1.60762   1.63822   1.64587
 Alpha virt. eigenvalues --    1.67717   1.73895   1.74892   1.79114   1.80878
 Alpha virt. eigenvalues --    1.82338   1.83675   1.84194   1.87135   1.88539
 Alpha virt. eigenvalues --    1.90563   1.90902   1.92158   1.93614   1.95811
 Alpha virt. eigenvalues --    1.97038   1.97570   1.98380   2.00502   2.01356
 Alpha virt. eigenvalues --    2.02423   2.04488   2.05610   2.06635   2.07088
 Alpha virt. eigenvalues --    2.07728   2.08301   2.09097   2.09994   2.12630
 Alpha virt. eigenvalues --    2.14459   2.15808   2.16541   2.17972   2.18531
 Alpha virt. eigenvalues --    2.20532   2.20710   2.23570   2.24830   2.24988
 Alpha virt. eigenvalues --    2.28455   2.29221   2.32585   2.34647   2.36580
 Alpha virt. eigenvalues --    2.37378   2.37898   2.40603   2.42015   2.42262
 Alpha virt. eigenvalues --    2.44057   2.45454   2.46215   2.47697   2.49531
 Alpha virt. eigenvalues --    2.50901   2.53606   2.54440   2.57452   2.58859
 Alpha virt. eigenvalues --    2.59847   2.64869   2.67928   2.70235   2.72166
 Alpha virt. eigenvalues --    2.72668   2.74328   2.75384   2.76028   2.77076
 Alpha virt. eigenvalues --    2.80520   2.82421   2.83109   2.86877   2.91339
 Alpha virt. eigenvalues --    2.98543   3.01844   3.05177   3.06887   3.07736
 Alpha virt. eigenvalues --    3.11614   3.12609   3.23889   3.27214   3.28497
 Alpha virt. eigenvalues --    3.52165   4.05036   4.11778   4.14756   4.17812
 Alpha virt. eigenvalues --    4.23583   4.24539   4.28056   4.34357   4.36934
 Alpha virt. eigenvalues --    4.37878   4.45896   4.48260   4.50175   4.53838
 Alpha virt. eigenvalues --    4.63268   4.70195   4.71695   4.87448
          Condensed to atoms (all electrons):
               1          2          3          4          5          6
     1  C    5.302290   0.365989   0.360881   0.364886   0.372853  -0.075292
     2  H    0.365989   0.486778  -0.024148  -0.016670  -0.021032   0.000674
     3  H    0.360881  -0.024148   0.528921  -0.020138  -0.021886   0.001760
     4  H    0.364886  -0.016670  -0.020138   0.487361  -0.024312   0.004894
     5  C    0.372853  -0.021032  -0.021886  -0.024312   4.322498   0.581628
     6  O   -0.075292   0.000674   0.001760   0.004894   0.581628   8.055082
     7  N   -0.121507   0.001389   0.000190   0.004545   0.274392  -0.099747
     8  C    0.005287  -0.000047  -0.000224  -0.000116  -0.023627  -0.005817
     9  H   -0.000054  -0.000006   0.000009   0.000003   0.001810   0.000730
    10  H    0.001046  -0.000016  -0.000039  -0.000022  -0.003751   0.018342
    11  C   -0.000135   0.000017  -0.000009   0.000001  -0.000552  -0.000208
    12  N    0.000010  -0.000003  -0.000000   0.000000   0.000505   0.000319
    13  O    0.000000   0.000000   0.000000  -0.000000  -0.000093  -0.000003
    14  C   -0.000265   0.000059   0.000001   0.000004  -0.000407  -0.013683
    15  H    0.000010   0.000002  -0.000000  -0.000001   0.000202   0.000050
    16  H   -0.000000  -0.000000   0.000000   0.000000  -0.000030   0.000088
    17  H    0.000740  -0.000105  -0.000004  -0.000008   0.003202   0.031812
    18  C   -0.000000   0.000000  -0.000000   0.000000  -0.000016  -0.000001
    19  H    0.000000  -0.000000  -0.000000  -0.000000   0.000001  -0.000000
    20  H   -0.000000   0.000000  -0.000000   0.000000   0.000001   0.000000
    21  H   -0.000000  -0.000000   0.000000   0.000000  -0.000000   0.000000
    22  C   -0.001953  -0.003270   0.001350   0.000010  -0.025329   0.002321
    23  H    0.000148  -0.000515   0.003286  -0.000004  -0.002965   0.000053
    24  H    0.000077   0.000062   0.000154   0.000002   0.001420  -0.000088
    25  C   -0.005795   0.005342  -0.002250   0.000393  -0.003625  -0.000107
    26  C   -0.000881   0.000722   0.000255   0.000087   0.000038  -0.000004
    27  C   -0.002194   0.001600   0.000142   0.000044   0.000789  -0.000033
    28  C    0.000029  -0.000051  -0.000017  -0.000001  -0.000006   0.000000
    29  H   -0.000064   0.000017   0.000286   0.000002  -0.000024  -0.000000
    30  C   -0.000097   0.000221   0.000001  -0.000004  -0.000001   0.000000
    31  H   -0.000065   0.000042  -0.000001   0.000002   0.000670  -0.000035
    32  C    0.000012   0.000028  -0.000001  -0.000001   0.000002   0.000000
    33  H   -0.000001   0.000002  -0.000000  -0.000000   0.000000   0.000000
    34  H   -0.000001   0.000002   0.000000   0.000000   0.000001  -0.000000
    35  O    0.000000  -0.000001  -0.000000   0.000000  -0.000000  -0.000000
    36  H   -0.000000  -0.000000   0.000000   0.000000   0.000000  -0.000000
               7          8          9         10         11         12
     1  C   -0.121507   0.005287  -0.000054   0.001046  -0.000135   0.000010
     2  H    0.001389  -0.000047  -0.000006  -0.000016   0.000017  -0.000003
     3  H    0.000190  -0.000224   0.000009  -0.000039  -0.000009  -0.000000
     4  H    0.004545  -0.000116   0.000003  -0.000022   0.000001   0.000000
     5  C    0.274392  -0.023627   0.001810  -0.003751  -0.000552   0.000505
     6  O   -0.099747  -0.005817   0.000730   0.018342  -0.000208   0.000319
     7  N    7.156834   0.251270  -0.038905  -0.037555  -0.052274   0.004045
     8  C    0.251270   5.175846   0.372987   0.361268   0.347547  -0.113508
     9  H   -0.038905   0.372987   0.518807  -0.019270  -0.038259   0.004996
    10  H   -0.037555   0.361268  -0.019270   0.479482  -0.022227   0.001644
    11  C   -0.052274   0.347547  -0.038259  -0.022227   4.413140   0.276618
    12  N    0.004045  -0.113508   0.004996   0.001644   0.276618   7.053199
    13  O   -0.001364  -0.080657   0.005025   0.002373   0.572589  -0.098039
    14  C    0.004805   0.001865   0.000398  -0.003560  -0.027392   0.262316
    15  H   -0.000120  -0.000212  -0.000015   0.000184   0.002376  -0.047731
    16  H    0.000117  -0.000222   0.000018   0.000123  -0.001441  -0.044028
    17  H   -0.010586   0.004365   0.000059  -0.000383  -0.004358  -0.024856
    18  C   -0.000232   0.005261  -0.000121  -0.000185  -0.029954   0.270245
    19  H    0.000023  -0.000092   0.000001  -0.000002   0.002823  -0.046567
    20  H   -0.000029   0.000983  -0.000025  -0.000028  -0.000749  -0.035803
    21  H   -0.000004  -0.000128   0.000004  -0.000005  -0.000255  -0.044319
    22  C    0.230951  -0.034825  -0.005400   0.003824  -0.000408  -0.001082
    23  H   -0.039213   0.001639   0.001255  -0.000085   0.000102  -0.000011
    24  H   -0.037016  -0.005779   0.001166   0.000518  -0.000708   0.000095
    25  C   -0.054797   0.002607   0.000126  -0.000192  -0.001439   0.000402
    26  C    0.001967  -0.000063   0.000010   0.000001  -0.000043   0.000002
    27  C   -0.000543  -0.000376   0.000015   0.000008   0.002396  -0.008584
    28  C   -0.000091   0.000001  -0.000000  -0.000000   0.000001  -0.000000
    29  H    0.000101  -0.000001   0.000002   0.000000  -0.000001   0.000000
    30  C    0.000178   0.000004   0.000000   0.000000   0.000039   0.000122
    31  H    0.004980  -0.002460   0.000102   0.000057  -0.000019   0.013244
    32  C    0.000000  -0.000000   0.000000  -0.000000  -0.000002  -0.000001
    33  H    0.000001  -0.000000   0.000000   0.000000   0.000000  -0.000000
    34  H    0.000004   0.000000   0.000000  -0.000000   0.000002  -0.000010
    35  O    0.000000  -0.000000   0.000000  -0.000000   0.000000   0.000000
    36  H    0.000000  -0.000000   0.000000   0.000000   0.000000   0.000000
              13         14         15         16         17         18
     1  C    0.000000  -0.000265   0.000010  -0.000000   0.000740  -0.000000
     2  H    0.000000   0.000059   0.000002  -0.000000  -0.000105   0.000000
     3  H    0.000000   0.000001  -0.000000   0.000000  -0.000004  -0.000000
     4  H   -0.000000   0.000004  -0.000001   0.000000  -0.000008   0.000000
     5  C   -0.000093  -0.000407   0.000202  -0.000030   0.003202  -0.000016
     6  O   -0.000003  -0.013683   0.000050   0.000088   0.031812  -0.000001
     7  N   -0.001364   0.004805  -0.000120   0.000117  -0.010586  -0.000232
     8  C   -0.080657   0.001865  -0.000212  -0.000222   0.004365   0.005261
     9  H    0.005025   0.000398  -0.000015   0.000018   0.000059  -0.000121
    10  H    0.002373  -0.003560   0.000184   0.000123  -0.000383  -0.000185
    11  C    0.572589  -0.027392   0.002376  -0.001441  -0.004358  -0.029954
    12  N   -0.098039   0.262316  -0.047731  -0.044028  -0.024856   0.270245
    13  O    8.091142   0.002294  -0.000016  -0.000027  -0.000005  -0.011802
    14  C    0.002294   5.063313   0.384658   0.386402   0.358139  -0.053660
    15  H   -0.000016   0.384658   0.559688  -0.040826  -0.022010  -0.002436
    16  H   -0.000027   0.386402  -0.040826   0.545946  -0.020103  -0.000836
    17  H   -0.000005   0.358139  -0.022010  -0.020103   0.457325   0.003395
    18  C   -0.011802  -0.053660  -0.002436  -0.000836   0.003395   5.014646
    19  H    0.000631  -0.001936   0.006430  -0.001391  -0.000028   0.383221
    20  H    0.022625   0.003552  -0.000000  -0.000067  -0.000121   0.378340
    21  H    0.000582  -0.000272  -0.001707   0.005239   0.000020   0.390321
    22  C   -0.002813  -0.000143   0.000035  -0.000004   0.000106   0.000026
    23  H    0.000108   0.000006   0.000000  -0.000000  -0.000008  -0.000000
    24  H    0.014798  -0.000023   0.000012  -0.000001  -0.000024   0.000008
    25  C   -0.000929  -0.000036   0.000010   0.000000   0.000027   0.000017
    26  C   -0.000008   0.000000  -0.000000   0.000000  -0.000001  -0.000001
    27  C    0.000940   0.000344   0.001191  -0.000030   0.000036   0.000562
    28  C    0.000000  -0.000000   0.000000  -0.000000   0.000000   0.000000
    29  H   -0.000000   0.000000  -0.000000   0.000000  -0.000000  -0.000000
    30  C    0.000005  -0.000015  -0.000021   0.000000  -0.000003  -0.000024
    31  H   -0.001536  -0.001487  -0.001475   0.000243  -0.000239  -0.001523
    32  C   -0.000000  -0.000000   0.000001  -0.000000  -0.000000   0.000000
    33  H    0.000000   0.000000   0.000000   0.000000  -0.000000   0.000000
    34  H    0.000000   0.000006   0.000027  -0.000000  -0.000000   0.000020
    35  O   -0.000000   0.000000  -0.000000  -0.000000   0.000000  -0.000000
    36  H   -0.000000  -0.000000  -0.000000   0.000000  -0.000000  -0.000000
              19         20         21         22         23         24
     1  C    0.000000  -0.000000  -0.000000  -0.001953   0.000148   0.000077
     2  H   -0.000000   0.000000  -0.000000  -0.003270  -0.000515   0.000062
     3  H   -0.000000  -0.000000   0.000000   0.001350   0.003286   0.000154
     4  H   -0.000000   0.000000   0.000000   0.000010  -0.000004   0.000002
     5  C    0.000001   0.000001  -0.000000  -0.025329  -0.002965   0.001420
     6  O   -0.000000   0.000000   0.000000   0.002321   0.000053  -0.000088
     7  N    0.000023  -0.000029  -0.000004   0.230951  -0.039213  -0.037016
     8  C   -0.000092   0.000983  -0.000128  -0.034825   0.001639  -0.005779
     9  H    0.000001  -0.000025   0.000004  -0.005400   0.001255   0.001166
    10  H   -0.000002  -0.000028  -0.000005   0.003824  -0.000085   0.000518
    11  C    0.002823  -0.000749  -0.000255  -0.000408   0.000102  -0.000708
    12  N   -0.046567  -0.035803  -0.044319  -0.001082  -0.000011   0.000095
    13  O    0.000631   0.022625   0.000582  -0.002813   0.000108   0.014798
    14  C   -0.001936   0.003552  -0.000272  -0.000143   0.000006  -0.000023
    15  H    0.006430  -0.000000  -0.001707   0.000035   0.000000   0.000012
    16  H   -0.001391  -0.000067   0.005239  -0.000004  -0.000000  -0.000001
    17  H   -0.000028  -0.000121   0.000020   0.000106  -0.000008  -0.000024
    18  C    0.383221   0.378340   0.390321   0.000026  -0.000000   0.000008
    19  H    0.561707  -0.020740  -0.038778  -0.000000   0.000000   0.000004
    20  H   -0.020740   0.448938  -0.020273   0.000010  -0.000000  -0.000016
    21  H   -0.038778  -0.020273   0.541685  -0.000000  -0.000000  -0.000001
    22  C   -0.000000   0.000010  -0.000000   5.090778   0.380652   0.375931
    23  H    0.000000  -0.000000  -0.000000   0.380652   0.552716  -0.023217
    24  H    0.000004  -0.000016  -0.000001   0.375931  -0.023217   0.481964
    25  C    0.000022   0.000000  -0.000000   0.347736  -0.051923  -0.029828
    26  C   -0.000000  -0.000000   0.000000  -0.049604  -0.000753  -0.000235
    27  C    0.000883   0.000051  -0.000022  -0.057482   0.004435  -0.002210
    28  C    0.000000   0.000000  -0.000000   0.005021   0.000281  -0.000125
    29  H   -0.000000  -0.000000   0.000000  -0.006482   0.006065   0.000145
    30  C   -0.000026  -0.000005   0.000001   0.005196  -0.000069  -0.000020
    31  H   -0.001070  -0.000165   0.000156  -0.009554   0.000032   0.000565
    32  C    0.000002  -0.000000  -0.000000   0.000312  -0.000016   0.000028
    33  H   -0.000000   0.000000  -0.000000  -0.000104  -0.000005   0.000002
    34  H    0.000138  -0.000000  -0.000001  -0.000135   0.000002  -0.000000
    35  O   -0.000000  -0.000000   0.000000   0.000000  -0.000000  -0.000000
    36  H   -0.000000   0.000000   0.000000  -0.000000   0.000000   0.000000
              25         26         27         28         29         30
     1  C   -0.005795  -0.000881  -0.002194   0.000029  -0.000064  -0.000097
     2  H    0.005342   0.000722   0.001600  -0.000051   0.000017   0.000221
     3  H   -0.002250   0.000255   0.000142  -0.000017   0.000286   0.000001
     4  H    0.000393   0.000087   0.000044  -0.000001   0.000002  -0.000004
     5  C   -0.003625   0.000038   0.000789  -0.000006  -0.000024  -0.000001
     6  O   -0.000107  -0.000004  -0.000033   0.000000  -0.000000   0.000000
     7  N   -0.054797   0.001967  -0.000543  -0.000091   0.000101   0.000178
     8  C    0.002607  -0.000063  -0.000376   0.000001  -0.000001   0.000004
     9  H    0.000126   0.000010   0.000015  -0.000000   0.000002   0.000000
    10  H   -0.000192   0.000001   0.000008  -0.000000   0.000000   0.000000
    11  C   -0.001439  -0.000043   0.002396   0.000001  -0.000001   0.000039
    12  N    0.000402   0.000002  -0.008584  -0.000000   0.000000   0.000122
    13  O   -0.000929  -0.000008   0.000940   0.000000  -0.000000   0.000005
    14  C   -0.000036   0.000000   0.000344  -0.000000   0.000000  -0.000015
    15  H    0.000010  -0.000000   0.001191   0.000000  -0.000000  -0.000021
    16  H    0.000000   0.000000  -0.000030  -0.000000   0.000000   0.000000
    17  H    0.000027  -0.000001   0.000036   0.000000  -0.000000  -0.000003
    18  C    0.000017  -0.000001   0.000562   0.000000  -0.000000  -0.000024
    19  H    0.000022  -0.000000   0.000883   0.000000  -0.000000  -0.000026
    20  H    0.000000  -0.000000   0.000051   0.000000  -0.000000  -0.000005
    21  H   -0.000000   0.000000  -0.000022  -0.000000   0.000000   0.000001
    22  C    0.347736  -0.049604  -0.057482   0.005021  -0.006482   0.005196
    23  H   -0.051923  -0.000753   0.004435   0.000281   0.006065  -0.000069
    24  H   -0.029828  -0.000235  -0.002210  -0.000125   0.000145  -0.000020
    25  C    4.757907   0.547286   0.565742  -0.037487  -0.040493  -0.032613
    26  C    0.547286   4.938700  -0.040566   0.529319   0.367189  -0.038903
    27  C    0.565742  -0.040566   4.918241  -0.032648   0.004806   0.495299
    28  C   -0.037487   0.529319  -0.032648   4.945817  -0.033779  -0.066710
    29  H   -0.040493   0.367189   0.004806  -0.033779   0.545211   0.000313
    30  C   -0.032613  -0.038903   0.495299  -0.066710   0.000313   5.082134
    31  H   -0.037693   0.005644   0.353116   0.000199  -0.000134  -0.034852
    32  C   -0.028901  -0.027173  -0.018666   0.564928   0.003268   0.520094
    33  H    0.002977  -0.032423   0.000077   0.362274  -0.003976   0.005411
    34  H    0.002800   0.000403  -0.027241   0.004175   0.000012   0.361048
    35  O    0.000192   0.002670   0.004022  -0.051720  -0.000049  -0.057761
    36  H   -0.000023  -0.000181   0.000625   0.005523   0.000004  -0.002492
              31         32         33         34         35         36
     1  C   -0.000065   0.000012  -0.000001  -0.000001   0.000000  -0.000000
     2  H    0.000042   0.000028   0.000002   0.000002  -0.000001  -0.000000
     3  H   -0.000001  -0.000001  -0.000000   0.000000  -0.000000   0.000000
     4  H    0.000002  -0.000001  -0.000000   0.000000   0.000000   0.000000
     5  C    0.000670   0.000002   0.000000   0.000001  -0.000000   0.000000
     6  O   -0.000035   0.000000   0.000000  -0.000000  -0.000000  -0.000000
     7  N    0.004980   0.000000   0.000001   0.000004   0.000000   0.000000
     8  C   -0.002460  -0.000000  -0.000000   0.000000  -0.000000  -0.000000
     9  H    0.000102   0.000000   0.000000   0.000000   0.000000   0.000000
    10  H    0.000057  -0.000000   0.000000  -0.000000  -0.000000   0.000000
    11  C   -0.000019  -0.000002   0.000000   0.000002   0.000000   0.000000
    12  N    0.013244  -0.000001  -0.000000  -0.000010   0.000000   0.000000
    13  O   -0.001536  -0.000000   0.000000   0.000000  -0.000000  -0.000000
    14  C   -0.001487  -0.000000   0.000000   0.000006   0.000000  -0.000000
    15  H   -0.001475   0.000001   0.000000   0.000027  -0.000000  -0.000000
    16  H    0.000243  -0.000000   0.000000  -0.000000  -0.000000   0.000000
    17  H   -0.000239  -0.000000  -0.000000  -0.000000   0.000000  -0.000000
    18  C   -0.001523   0.000000   0.000000   0.000020  -0.000000  -0.000000
    19  H   -0.001070   0.000002  -0.000000   0.000138  -0.000000  -0.000000
    20  H   -0.000165  -0.000000   0.000000  -0.000000  -0.000000   0.000000
    21  H    0.000156  -0.000000  -0.000000  -0.000001   0.000000   0.000000
    22  C   -0.009554   0.000312  -0.000104  -0.000135   0.000000  -0.000000
    23  H    0.000032  -0.000016  -0.000005   0.000002  -0.000000   0.000000
    24  H    0.000565   0.000028   0.000002  -0.000000  -0.000000   0.000000
    25  C   -0.037693  -0.028901   0.002977   0.002800   0.000192  -0.000023
    26  C    0.005644  -0.027173  -0.032423   0.000403   0.002670  -0.000181
    27  C    0.353116  -0.018666   0.000077  -0.027241   0.004022   0.000625
    28  C    0.000199   0.564928   0.362274   0.004175  -0.051720   0.005523
    29  H   -0.000134   0.003268  -0.003976   0.000012  -0.000049   0.000004
    30  C   -0.034852   0.520094   0.005411   0.361048  -0.057761  -0.002492
    31  H    0.550923   0.002751   0.000011  -0.004182  -0.000043  -0.000007
    32  C    0.002751   4.449806  -0.030701  -0.040456   0.290748  -0.031019
    33  H    0.000011  -0.030701   0.520811  -0.000125  -0.000753  -0.000220
    34  H   -0.004182  -0.040456  -0.000125   0.553288  -0.004298   0.005531
    35  O   -0.000043   0.290748  -0.000753  -0.004298   8.209865   0.252936
    36  H   -0.000007  -0.031019  -0.000220   0.005531   0.252936   0.351336
 Mulliken charges:
               1
     1  C   -0.565953
     2  H    0.202920
     3  H    0.171480
     4  H    0.199044
     5  C    0.567645
     6  O   -0.502738
     7  N   -0.441809
     8  C   -0.262776
     9  H    0.194533
    10  H    0.218450
    11  C    0.562781
    12  N   -0.423218
    13  O   -0.515820
    14  C   -0.365283
    15  H    0.161692
    16  H    0.170829
    17  H    0.223615
    18  C   -0.345271
    19  H    0.154743
    20  H    0.223522
    21  H    0.167757
    22  C   -0.245668
    23  H    0.168001
    24  H    0.222340
    25  C    0.094544
    26  C   -0.203457
    27  C   -0.164770
    28  C   -0.194931
    29  H    0.157580
    30  C   -0.236453
    31  H    0.163805
    32  C    0.344955
    33  H    0.176743
    34  H    0.148990
    35  O   -0.645808
    36  H    0.417986
 Sum of Mulliken charges =  -0.00000
 Mulliken charges with hydrogens summed into heavy atoms:
               1
     1  C    0.007491
     5  C    0.567645
     6  O   -0.502738
     7  N   -0.441809
     8  C    0.150207
    11  C    0.562781
    12  N   -0.423218
    13  O   -0.515820
    14  C    0.190853
    18  C    0.200751
    22  C    0.144673
    25  C    0.094544
    26  C   -0.045877
    27  C   -0.000964
    28  C   -0.018188
    30  C   -0.087462
    32  C    0.344955
    35  O   -0.227822
 Electronic spatial extent (au):  <R**2>=           4830.1300
 Charge=             -0.0000 electrons
 Dipole moment (field-independent basis, Debye):
    X=              1.3188    Y=             -1.0920    Z=             -1.6976  Tot=              2.4111
 Quadrupole moment (field-independent basis, Debye-Ang):
   XX=           -111.3353   YY=           -100.2281   ZZ=           -109.7922
   XY=              3.1721   XZ=              0.0332   YZ=             16.9503
 Traceless Quadrupole moment (field-independent basis, Debye-Ang):
   XX=             -4.2168   YY=              6.8905   ZZ=             -2.6737
   XY=              3.1721   XZ=              0.0332   YZ=             16.9503
 Octapole moment (field-independent basis, Debye-Ang**2):
  XXX=            -40.5699  YYY=            -28.0610  ZZZ=            -15.8156  XYY=             29.4317
  XXY=            -21.9508  XXZ=            -12.6577  XZZ=             21.7374  YZZ=             -0.1649
  YYZ=             -7.9806  XYZ=             -5.6844
 Hexadecapole moment (field-independent basis, Debye-Ang**3):
 XXXX=          -3845.1681 YYYY=          -1690.3259 ZZZZ=           -796.7394 XXXY=              5.2272
 XXXZ=            -12.5375 YYYX=             -7.9447 YYYZ=             49.9720 ZZZX=            -13.5224
 ZZZY=             42.8825 XXYY=           -859.6575 XXZZ=           -739.0555 YYZZ=           -423.7747
 XXYZ=            135.5948 YYXZ=            -53.7841 ZZXY=            -29.5060
 N-N= 1.377721821387D+03 E-N=-4.713398289371D+03  KE= 8.333079377667D+02
 Calling FoFJK, ICntrl=      2127 FMM=F ISym2X=0 I1Cent= 0 IOpClX= 0 NMat=1 NMatS=1 NMatT=0.
 ***** Axes restored to original set *****
 -------------------------------------------------------------------
 Center     Atomic                   Forces (Hartrees/Bohr)
 Number     Number              X              Y              Z
 -------------------------------------------------------------------
      1        6          -0.008503919   -0.000473647   -0.001485110
      2        1          -0.000070411   -0.000647851   -0.000364009
      3        1          -0.000441416   -0.000226600    0.000475282
      4        1           0.000905746    0.000652390   -0.000550778
      5        6           0.021619421    0.000259924    0.009470533
      6        8          -0.006437841   -0.001078009   -0.001986473
      7        7          -0.009457282    0.003468010   -0.002311841
      8        6           0.002866930    0.001215003    0.001492702
      9        1           0.000004625    0.000046650   -0.000296357
     10        1           0.000053925   -0.000371738    0.000074859
     11        6           0.000716287   -0.011452287    0.012588051
     12        7          -0.000683077   -0.001142056    0.003437003
     13        8          -0.002379734    0.008728377   -0.018827466
     14        6           0.000178287   -0.001893678    0.003844560
     15        1           0.000618442   -0.000009766   -0.000906523
     16        1          -0.000266162    0.000169333   -0.000478336
     17        1          -0.000404044    0.000872420   -0.001177706
     18        6          -0.000674296    0.004841284    0.000528003
     19        1           0.001030097   -0.000833329   -0.000704928
     20        1           0.000139426   -0.000689677    0.000679529
     21        1          -0.000607263   -0.000881648   -0.000395441
     22        6          -0.002035614    0.002731449   -0.003747057
     23        1          -0.000444307   -0.000363833   -0.000125734
     24        1           0.000046534    0.000070830    0.000035251
     25        6           0.005125406   -0.005350791    0.001376415
     26        6          -0.000402535   -0.002771421   -0.004593817
     27        6           0.006297131    0.003625950    0.000797931
     28        6          -0.003450891   -0.002467618   -0.000939145
     29        1          -0.000407594   -0.000543658   -0.000005893
     30        6           0.000160381    0.000973970    0.002303583
     31        1           0.000526411   -0.000447225   -0.000312055
     32        6           0.004949153    0.000849061   -0.000555185
     33        1          -0.000525453   -0.000109183   -0.000001255
     34        1           0.000257350    0.000512127    0.000205987
     35        8          -0.010416342   -0.002420997   -0.001609022
     36        1           0.002112629    0.005158233    0.004064443
 -------------------------------------------------------------------
 Cartesian Forces:  Max     0.021619421 RMS     0.004274239

 GradGradGradGradGradGradGradGradGradGradGradGradGradGradGradGradGradGrad
 Berny optimization.
 Search for a local minimum.
 Step number   1 out of a maximum of    2
 All quantities printed in internal units (Hartrees-Bohrs-Radians)
 Second derivative matrix not updated -- first step.
 ITU=  0
     Eigenvalues ---    0.00012   0.00018   0.00035   0.00062   0.00086
     Eigenvalues ---    0.00137   0.00216   0.00364   0.00425   0.00502
     Eigenvalues ---    0.00554   0.00732   0.00839   0.00975   0.01322
     Eigenvalues ---    0.01451   0.01610   0.01616   0.01886   0.02370
     Eigenvalues ---    0.02419   0.02920   0.02955   0.03315   0.03817
     Eigenvalues ---    0.04219   0.04772   0.05158   0.05269   0.05560
     Eigenvalues ---    0.05767   0.05894   0.06086   0.06216   0.06261
     Eigenvalues ---    0.06494   0.06839   0.07070   0.07182   0.08018
     Eigenvalues ---    0.09451   0.09785   0.10625   0.11420   0.12094
     Eigenvalues ---    0.12404   0.12520   0.12919   0.13176   0.13329
     Eigenvalues ---    0.13572   0.13700   0.13767   0.14051   0.14453
     Eigenvalues ---    0.17925   0.18711   0.20121   0.20858   0.22182
     Eigenvalues ---    0.24146   0.26585   0.27257   0.29804   0.30370
     Eigenvalues ---    0.31351   0.31942   0.33397   0.37927   0.41717
     Eigenvalues ---    0.43798   0.47066   0.49050   0.61816   0.65770
     Eigenvalues ---    0.69047   0.73118   0.80145   0.88195   0.88682
     Eigenvalues ---    0.89912   0.91356   0.91717   0.92616   0.93095
     Eigenvalues ---    0.95225   0.97381   0.99070   1.01348   1.07972
     Eigenvalues ---    1.13947   1.20110   1.23131   1.27797   1.36071
     Eigenvalues ---    1.38800   1.44529   1.47861   1.60052   1.66565
     Eigenvalues ---    2.09232   2.23477
 Quadratic step=1.900D+00 exceeds max=3.000D-01 adjusted using Lamda=-1.563D-03.
 Angle between NR and scaled steps=  47.59 degrees.
 Angle between quadratic step and forces=  78.73 degrees.
 Linear search not attempted -- first point.
 B after Tr=     0.001730   -0.000895    0.001358
         Rot=    1.000000   -0.000411    0.000158    0.000211 Ang=  -0.06 deg.
 Variable       Old X    -DE/DX   Delta X   Delta X   Delta X     New X
                                 (Linear)    (Quad)   (Total)
    X1       -0.33070  -0.00850   0.00000  -0.03195  -0.02736  -0.35806
    Y1        5.53690  -0.00047   0.00000   0.05702   0.05759   5.59449
    Z1       -1.58170  -0.00149   0.00000  -0.01407  -0.00823  -1.58994
    X2        1.12628  -0.00007   0.00000  -0.03018  -0.02591   1.10037
    Y2        4.23299  -0.00065   0.00000   0.07061   0.07112   4.30411
    Z2       -2.24499  -0.00036   0.00000  -0.04191  -0.03667  -2.28167
    X3        0.38361  -0.00044   0.00000  -0.02029  -0.01586   0.36776
    Y3        6.45719  -0.00023   0.00000   0.04677   0.04563   6.50282
    Z3        0.12661   0.00048   0.00000  -0.01297  -0.00616   0.12045
    X4       -0.69542   0.00091   0.00000  -0.05632  -0.05066  -0.74608
    Y4        6.95986   0.00065   0.00000   0.06513   0.06704   7.02690
    Z4       -3.02545  -0.00055   0.00000  -0.00235   0.00454  -3.02091
    X5       -2.83081   0.02162   0.00000   0.02128   0.02513  -2.80568
    Y5        4.15740   0.00026   0.00000   0.02358   0.02477   4.18217
    Z5       -1.12817   0.00947   0.00000   0.02453   0.02843  -1.09973
    X6       -4.65629  -0.00644   0.00000  -0.01294  -0.00854  -4.66482
    Y6        4.50700  -0.00108   0.00000   0.00079   0.00386   4.51086
    Z6       -2.48877  -0.00199   0.00000   0.05372   0.05730  -2.43147
    X7       -2.84782  -0.00946   0.00000   0.00580   0.00831  -2.83951
    Y7        2.48121   0.00347   0.00000   0.01239   0.01198   2.49319
    Z7        0.87116  -0.00231   0.00000   0.00059   0.00310   0.87426
    X8       -5.27045   0.00287   0.00000   0.00774   0.00955  -5.26090
    Y8        1.36816   0.00122   0.00000   0.01169   0.01170   1.37986
    Z8        1.59682   0.00149   0.00000  -0.00021   0.00061   1.59743
    X9       -5.76177   0.00000   0.00000   0.01490   0.01633  -5.74544
    Y9        1.94453   0.00005   0.00000   0.00403   0.00267   1.94719
    Z9        3.52245  -0.00030   0.00000   0.00307   0.00421   3.52666
   X10       -6.70475   0.00005   0.00000   0.00739   0.00992  -6.69483
   Y10        2.08248  -0.00037   0.00000   0.02754   0.02921   2.11169
   Z10        0.30236   0.00007   0.00000   0.00988   0.01085   0.31320
   X11       -5.09659   0.00072   0.00000  -0.03238  -0.03181  -5.12840
   Y11       -1.50611  -0.01145   0.00000   0.00233   0.00224  -1.50388
   Z11        1.67619   0.01259   0.00000  -0.01936  -0.02087   1.65532
   X12       -5.12872  -0.00068   0.00000  -0.04756  -0.04683  -5.17554
   Y12       -2.79113  -0.00114   0.00000  -0.00776  -0.00600  -2.79713
   Z12       -0.56503   0.00344   0.00000  -0.00317  -0.00575  -0.57078
   X13       -4.82258  -0.00238   0.00000  -0.03490  -0.03542  -4.85800
   Y13       -2.57381   0.00873   0.00000   0.00242   0.00054  -2.57327
   Z13        3.74355  -0.01883   0.00000  -0.04603  -0.04832   3.69522
   X14       -5.50477   0.00018   0.00000  -0.04716  -0.04518  -5.54995
   Y14       -1.67997  -0.00189   0.00000  -0.03316  -0.02919  -1.70916
   Z14       -3.05191   0.00384   0.00000  -0.00989  -0.01170  -3.06361
   X15       -3.96654   0.00062   0.00000  -0.04199  -0.03987  -4.00641
   Y15       -2.27523  -0.00001   0.00000  -0.03804  -0.03370  -2.30893
   Z15       -4.30480  -0.00091   0.00000  -0.00625  -0.00806  -4.31285
   X16       -7.29245  -0.00027   0.00000  -0.04200  -0.04005  -7.33250
   Y16       -2.34515   0.00017   0.00000  -0.04817  -0.04278  -2.38793
   Z16       -3.86449  -0.00048   0.00000  -0.01105  -0.01397  -3.87846
   X17       -5.51800  -0.00040   0.00000  -0.06028  -0.05745  -5.57545
   Y17        0.37606   0.00087   0.00000  -0.02945  -0.02551   0.35055
   Z17       -2.98199  -0.00118   0.00000  -0.04740  -0.04752  -3.02951
   X18       -4.91140  -0.00067   0.00000  -0.04064  -0.04108  -4.95248
   Y18       -5.53123   0.00484   0.00000  -0.00037   0.00124  -5.52999
   Z18       -0.52156   0.00053   0.00000   0.01740   0.01265  -0.50892
   X19       -3.30135   0.00103   0.00000  -0.03654  -0.03687  -3.33823
   Y19       -6.13027  -0.00083   0.00000  -0.00947  -0.00760  -6.13787
   Z19       -1.67619  -0.00070   0.00000   0.02002   0.01528  -1.66091
   X20       -4.63739   0.00014   0.00000  -0.03651  -0.03782  -4.67521
   Y20       -6.12838  -0.00069   0.00000   0.00768   0.00757  -6.12081
   Z20        1.42674   0.00068   0.00000   0.02184   0.01669   1.44343
   X21       -6.63105  -0.00061   0.00000  -0.03703  -0.03761  -6.66866
   Y21       -6.39483  -0.00088   0.00000  -0.01870  -0.01574  -6.41057
   Z21       -1.28501  -0.00040   0.00000   0.02233   0.01631  -1.26870
   X22       -0.73888  -0.00204   0.00000   0.01641   0.01821  -0.72068
   Y22        2.11460   0.00273   0.00000  -0.00860  -0.01134   2.10327
   Z22        2.63050  -0.00375   0.00000  -0.02180  -0.01894   2.61156
   X23       -0.21354  -0.00044   0.00000   0.02022   0.02248  -0.19105
   Y23        3.91362  -0.00036   0.00000  -0.01253  -0.01622   3.89740
   Z23        3.52623  -0.00013   0.00000  -0.01930  -0.01480   3.51143
   X24       -1.45887   0.00005   0.00000   0.00957   0.01037  -1.44850
   Y24        0.88250   0.00007   0.00000  -0.00044  -0.00410   0.87840
   Z24        4.12905   0.00004   0.00000  -0.01841  -0.01679   4.11226
   X25        1.56469   0.00513   0.00000   0.03174   0.03338   1.59808
   Y25        0.91274  -0.00535   0.00000  -0.03062  -0.03338   0.87935
   Z25        1.44753   0.00138   0.00000   0.00149   0.00408   1.45161
   X26        3.99110  -0.00040   0.00000   0.01896   0.02077   4.01187
   Y26        1.76122  -0.00277   0.00000  -0.01970  -0.02398   1.73724
   Z26        2.07492  -0.00459   0.00000  -0.00683  -0.00278   2.07214
   X27        1.32848   0.00630   0.00000   0.05796   0.05925   1.38773
   Y27       -1.15651   0.00363   0.00000  -0.01850  -0.01983  -1.17634
   Z27       -0.18141   0.00080   0.00000  -0.00131  -0.00048  -0.18190
   X28        6.13783  -0.00345   0.00000   0.02248   0.02412   6.16195
   Y28        0.60660  -0.00247   0.00000  -0.00765  -0.01205   0.59456
   Z28        1.08470  -0.00094   0.00000   0.00851   0.01231   1.09702
   X29        4.21409  -0.00041   0.00000   0.00392   0.00601   4.22010
   Y29        3.37505  -0.00054   0.00000  -0.01899  -0.02439   3.35066
   Z29        3.33348  -0.00001   0.00000  -0.00716  -0.00171   3.33176
   X30        3.46387   0.00016   0.00000   0.05618   0.05731   3.52117
   Y30       -2.32058   0.00097   0.00000  -0.01174  -0.01315  -2.33373
   Z30       -1.19620   0.00230   0.00000   0.01219   0.01275  -1.18345
   X31       -0.54424   0.00053   0.00000   0.06737   0.06853  -0.47571
   Y31       -1.84248  -0.00045   0.00000  -0.03017  -0.03029  -1.87277
   Z31       -0.67841  -0.00031   0.00000  -0.01853  -0.01886  -0.69727
   X32        5.87327   0.00495   0.00000   0.04025   0.04154   5.91481
   Y32       -1.45131   0.00085   0.00000   0.00166  -0.00129  -1.45260
   Z32       -0.55180  -0.00056   0.00000   0.01209   0.01413  -0.53767
   X33        8.02567  -0.00053   0.00000   0.01518   0.01695   8.04262
   Y33        1.26612  -0.00011   0.00000   0.00298  -0.00260   1.26352
   Z33        1.54958  -0.00000   0.00000   0.01622   0.02116   1.57074
   X34        3.25222   0.00026   0.00000   0.06766   0.06850   3.32072
   Y34       -3.92685   0.00051   0.00000  -0.00961  -0.00988  -3.93673
   Z34       -2.46798   0.00021   0.00000   0.01012   0.00930  -2.45869
   X35        8.05401  -0.01042   0.00000   0.02460   0.02574   8.07975
   Y35       -2.51334  -0.00242   0.00000   0.01201   0.00891  -2.50443
   Z35       -1.47399  -0.00161   0.00000   0.01353   0.01540  -1.45859
   X36        7.59859   0.00211   0.00000   0.03501   0.03591   7.63449
   Y36       -3.91551   0.00516   0.00000   0.01899   0.01697  -3.89854
   Z36       -2.57192   0.00406   0.00000   0.02195   0.02253  -2.54939
         Item               Value     Threshold  Converged?
 Maximum Force            0.021619     0.000450     NO 
 RMS     Force            0.004274     0.000300     NO 
 Maximum Displacement     0.071123     0.001800     NO 
 RMS     Displacement     0.028729     0.001200     NO 
 Predicted change in Energy=-1.372821D-03
 GradGradGradGradGradGradGradGradGradGradGradGradGradGradGradGradGradGrad

 Unable to Open any file for archive entry.
 1\1\GINC-NODE002\Force\RwB97X\6-31G(d)\C13H18N2O3\RKB19187\18-Feb-2025
 \0\\# wb97x/6-31g* force integral=(grid=ultrafine)\\ANI1x compatible c
 alculation\\0,1\C,-0.175,2.93000007,-0.83700001\H,0.59600002,2.2400000
 1,-1.18799996\H,0.20299999,3.41700006,0.067\H,-0.368,3.68300009,-1.600
 99995\C,-1.49800003,2.20000005,-0.597\O,-2.46399999,2.38499999,-1.3170
 0003\N,-1.50699997,1.31299996,0.461\C,-2.78900003,0.72399998,0.8450000
 3\H,-3.04900002,1.02900004,1.86399996\H,-3.5480001,1.102,0.16\C,-2.697
 00003,-0.79699999,0.88700002\N,-2.71399999,-1.477,-0.29899999\O,-2.552
 00005,-1.36199999,1.98099995\C,-2.91300011,-0.889,-1.61500001\H,-2.098
 99998,-1.204,-2.27800012\H,-3.85899997,-1.24100006,-2.04500008\H,-2.92
 000008,0.199,-1.57799995\C,-2.59899998,-2.92700005,-0.27599999\H,-1.74
 699998,-3.24399996,-0.88700002\H,-2.454,-3.24300003,0.755\H,-3.5090000
 6,-3.38400006,-0.68000001\C,-0.391,1.11899996,1.39199996\H,-0.113,2.07
 10001,1.86600006\H,-0.77200001,0.46700001,2.18499994\C,0.82800001,0.48
 300001,0.76599997\C,2.11199999,0.93199998,1.09800005\C,0.70300001,-0.6
 1199999,-0.096\C,3.24799991,0.32100001,0.574\H,2.23000002,1.78600001,1
 .76400006\C,1.83299994,-1.22800004,-0.63300002\H,-0.28799999,-0.975000
 02,-0.359\C,3.10800004,-0.76800001,-0.292\H,4.24700022,0.67000002,0.81
 999999\H,1.72099996,-2.07800007,-1.30599999\O,4.26200008,-1.33000004,-
 0.77999997\H,4.02099991,-2.07200003,-1.36099994\\Version=ES64L-G16RevC
 .01\State=1-A\HF=-841.2088029\RMSD=9.635e-09\RMSF=4.274e-03\Dipole=0.5
 122948,-0.4309131,-0.6720984\Quadrupole=-3.1170907,5.0850182,-1.967927
 5,2.4822535,0.0800804,12.5895427\PG=C01 [X(C13H18N2O3)]\\@
 The archive entry for this job was punched.


 HICKORY, DICKORY, DOCK
 TWO MICE RAN UP THE CLOCK
 THE CLOCK STRUCK ONE...
 THE OTHER ESCAPED WITH MINOR INJURIES.
 Job cpu time:       0 days  0 hours  8 minutes 16.3 seconds.
 Elapsed time:       0 days  0 hours  0 minutes 50.2 seconds.
 File lengths (MBytes):  RWF=    112 Int=      0 D2E=      0 Chk=     12 Scr=      8
 Normal termination of Gaussian 16 at Tue Feb 18 14:14:36 2025.
