 argument  1 = methane.nw
  NWChem w/ OpenMP: maximum threads =    1
                                         
                                         


             Northwest Computational Chemistry Package (NWChem) 7.2.0
             --------------------------------------------------------


                    Environmental Molecular Sciences Laboratory
                       Pacific Northwest National Laboratory
                                Richland, WA 99352

                              Copyright (c) 1994-2022
                       Pacific Northwest National Laboratory
                            Battelle Memorial Institute

             NWChem is an open-source computational chemistry package
                        distributed under the terms of the
                      Educational Community License (ECL) 2.0
             A copy of the license is included with this distribution
                              in the LICENSE.TXT file

                                  ACKNOWLEDGMENT
                                  --------------

            This software and its documentation were developed at the
            EMSL at Pacific Northwest National Laboratory, a multiprogram
            national laboratory, operated for the U.S. Department of Energy
            by Battelle under Contract Number DE-AC05-76RL01830. Support
            for this work was provided by the Department of Energy Office
            of Biological and Environmental Research, Office of Basic
            Energy Sciences, and the Office of Advanced Scientific Computing.


           Job information
           ---------------

    hostname        = 7f90140bd6b1
    program         = nwchem
    date            = Mon May  5 18:12:01 2025

    compiled        = Sat_Nov_12_22:37:07_2022
    source          = /opt/nwchem
    nwchem branch   = 7.2.0
    nwchem revision = N/A
    ga revision     = 5.8.0
    use scalapack   = T
    input           = methane.nw
    prefix          = methane.
    data base       = ./methane.db
    status          = restart
    nproc           =        1
    time left       =     -1s



           Memory information
           ------------------

    heap     =  123883393 doubles =    945.2 Mbytes
    stack    =  123883397 doubles =    945.2 Mbytes
    global   =   70790513 doubles =    540.1 Mbytes (distinct from heap & stack)
    total    =  318557303 doubles =   2430.4 Mbytes
    verify   = yes
    hardfail = no 


           Directory information
           ---------------------

  0 permanent = .
  0 scratch   = .


           Previous task information
           -------------------------

    Theory    = dft                             
    Operation = optimize                      
    Status    = ok                            
    Qmmm      = F
    Ignore    = F


           Geometries in the database
           --------------------------

       Name                              Natoms  Last Modified
       --------------------------------  ------  ------------------------
    1  driverinitial                          5  Mon May  5 16:04:59 2025  
    2  geometry                               5  Mon May  5 16:04:59 2025  

  The geometry named "geometry" is the default for restart



           Basis sets in the database
           --------------------------

       Name                              Natoms  Last Modified
        --------------------------------  ------  ------------------------
    1  ao basis                               2  Mon May  5 16:04:59 2025  

  The basis set named "ao basis" is the default AO basis for restart




                                NWChem Input Module
                                -------------------


                          Methane Optimization (DFT/PBE0)
                          -------------------------------

 Scaling coordinates for geometry "geometry" by  1.889725989
 (inverse scale =  0.529177249)

 CS  symmetry detected

          ------
          auto-z
          ------
  Looking for out-of-plane bends
  no constraints, skipping    0.0000000000000000     
  no constraints, skipping    0.0000000000000000     


                             Geometry "geometry" -> ""
                             -------------------------

 Output coordinates in angstroms (scale by  1.889725989 to convert to a.u.)

  No.       Tag          Charge          X              Y              Z
 ---- ---------------- ---------- -------------- -------------- --------------
    1 C                    6.0000     0.01467861     0.03287154     0.00000000
    2 H                    1.0000     0.27155434     0.60812354     0.89095454
    3 H                    1.0000     0.27155434     0.60812354    -0.89095454
    4 H                    1.0000    -1.05572629    -0.17910332     0.00000000
    5 H                    1.0000     0.42454594    -1.23437302     0.00000000

      Atomic Mass 
      ----------- 

      C                 12.000000
      H                  1.007825


 Effective nuclear repulsion energy (a.u.)      12.8107548036

            Nuclear Dipole moment (a.u.) 
            ----------------------------
        X                 Y               Z
 ---------------- ---------------- ----------------
    -0.0000000000     0.0000000000     0.0000000000

      Symmetry information
      --------------------

 Group name             Cs        
 Group number              2
 Group order               2
 No. of unique centers     4

      Symmetry unique atoms

     1    2    4    5



                                Z-matrix (autoz)
                                -------- 

 Units are Angstrom for bonds and degrees for angles

      Type          Name      I     J     K     L     M      Value
      ----------- --------  ----- ----- ----- ----- ----- ----------
    1 Stretch                  1     2                       1.09119
    2 Stretch                  1     3                       1.09119
    3 Stretch                  1     4                       1.09119
    4 Stretch                  1     5                       1.33188
    5 Bend                     2     1     3               109.47122
    6 Bend                     2     1     4               109.47122
    7 Bend                     2     1     5               115.41368
    8 Bend                     3     1     4               109.47122
    9 Bend                     3     1     5               115.41368
   10 Bend                     4     1     5                96.72137


            XYZ format geometry
            -------------------
     5
 geometry
 C                     0.01467861     0.03287154     0.00000000
 H                     0.27155434     0.60812354     0.89095454
 H                     0.27155434     0.60812354    -0.89095454
 H                    -1.05572629    -0.17910332     0.00000000
 H                     0.42454594    -1.23437302     0.00000000

 ==============================================================================
                                internuclear distances
 ------------------------------------------------------------------------------
       center one      |      center two      | atomic units |  angstroms
 ------------------------------------------------------------------------------
    2 H                |   1 C                |     2.06205  |     1.09119
    3 H                |   1 C                |     2.06205  |     1.09119
    4 H                |   1 C                |     2.06205  |     1.09119
 ------------------------------------------------------------------------------
                         number of included internuclear distances:          3
 ==============================================================================



 ==============================================================================
                                 internuclear angles
 ------------------------------------------------------------------------------
        center 1       |       center 2       |       center 3       |  degrees
 ------------------------------------------------------------------------------
    2 H                |   1 C                |   3 H                |   109.47
    2 H                |   1 C                |   4 H                |   109.47
    3 H                |   1 C                |   4 H                |   109.47
 ------------------------------------------------------------------------------
                            number of included internuclear angles:          3
 ==============================================================================



                      Basis "ao basis" -> "" (cartesian)
                      -----
  C (Carbon)
  ----------
            Exponent  Coefficients 
       -------------- ---------------------------------------------------------
  1 S  3.04752490E+03  0.001835
  1 S  4.57369510E+02  0.014037
  1 S  1.03948690E+02  0.068843
  1 S  2.92101550E+01  0.232184
  1 S  9.28666300E+00  0.467941
  1 S  3.16392700E+00  0.362312

  2 S  7.86827240E+00 -0.119332
  2 S  1.88128850E+00 -0.160854
  2 S  5.44249300E-01  1.143456

  3 P  7.86827240E+00  0.068999
  3 P  1.88128850E+00  0.316424
  3 P  5.44249300E-01  0.744308

  4 S  1.68714400E-01  1.000000

  5 P  1.68714400E-01  1.000000

  6 D  8.00000000E-01  1.000000

  H (Hydrogen)
  ------------
            Exponent  Coefficients 
       -------------- ---------------------------------------------------------
  1 S  1.87311370E+01  0.033495
  1 S  2.82539370E+00  0.234727
  1 S  6.40121700E-01  0.813757

  2 S  1.61277800E-01  1.000000



 Summary of "ao basis" -> "" (cartesian)
 ------------------------------------------------------------------------------
       Tag                 Description            Shells   Functions and Types
 ---------------- ------------------------------  ------  ---------------------
 C                           6-31G*                  6       15   3s2p1d
 H                           6-31G*                  2        2   2s




                           NWChem Geometry Optimization
                           ----------------------------




                          Methane Optimization (DFT/PBE0)


  no constraints, skipping    0.0000000000000000     
 maximum gradient threshold         (gmax) =   0.000450
 rms gradient threshold             (grms) =   0.000300
 maximum cartesian step threshold   (xmax) =   0.001800
 rms cartesian step threshold       (xrms) =   0.001200
 fixed trust radius                (trust) =   0.300000
 maximum step size to saddle      (sadstp) =   0.100000
 energy precision                  (eprec) =   5.0D-06
 maximum number of steps          (nptopt) =   40
 initial hessian option           (inhess) =    0
 line search option               (linopt) =    1
 hessian update option            (modupd) =    1
 saddle point option              (modsad) =    0
 initial eigen-mode to follow     (moddir) =    0
 initial variable to follow       (vardir) =    0
 follow first negative mode     (firstneg) =    T
 apply conjugacy                    (opcg) =    F
 source of zmatrix                         =   autoz   


          -------------------
          Energy Minimization
          -------------------


 Names of Z-matrix variables 
    1              2              3              4              5         
    6              7              8              9             10         

 Variables with the same non-blank name are constrained to be equal


 Using old Hessian from previous optimization

          --------
          Step   0
          --------


                         Geometry "geometry" -> "geometry"
                         ---------------------------------

 Output coordinates in angstroms (scale by  1.889725989 to convert to a.u.)

  No.       Tag          Charge          X              Y              Z
 ---- ---------------- ---------- -------------- -------------- --------------
    1 C                    6.0000     0.01467861     0.03287154     0.00000000
    2 H                    1.0000     0.27155434     0.60812354     0.89095454
    3 H                    1.0000     0.27155434     0.60812354    -0.89095454
    4 H                    1.0000    -1.05572629    -0.17910332     0.00000000
    5 H                    1.0000     0.42454594    -1.23437302     0.00000000

      Atomic Mass 
      ----------- 

      C                 12.000000
      H                  1.007825


 Effective nuclear repulsion energy (a.u.)      12.8107548036

            Nuclear Dipole moment (a.u.) 
            ----------------------------
        X                 Y               Z
 ---------------- ---------------- ----------------
    -0.0000000000     0.0000000000     0.0000000000

      Symmetry information
      --------------------

 Group name             Cs        
 Group number              2
 Group order               2
 No. of unique centers     4

      Symmetry unique atoms

     1    2    4    5


                                 NWChem DFT Module
                                 -----------------


                          Methane Optimization (DFT/PBE0)




 Summary of "ao basis" -> "ao basis" (cartesian)
 ------------------------------------------------------------------------------
       Tag                 Description            Shells   Functions and Types
 ---------------- ------------------------------  ------  ---------------------
 C                           6-31G*                  6       15   3s2p1d
 H                           6-31G*                  2        2   2s


      Symmetry analysis of basis
      --------------------------

        a'         17
        a"          6

  Caching 1-el integrals 

            General Information
            -------------------
          SCF calculation type: DFT
          Wavefunction type:  closed shell.
          No. of atoms     :     5
          No. of electrons :    10
           Alpha electrons :     5
            Beta electrons :     5
          Charge           :     0
          Spin multiplicity:     1
          Use of symmetry is: on ; symmetry adaption is: on 
          Maximum number of iterations:  50
          AO basis - number of functions:    23
                     number of shells:    14
          Convergence on energy requested:  1.00D-06
          Convergence on density requested:  1.00D-05
          Convergence on gradient requested:  5.00D-04

              XC Information
              --------------
                         PBE0 Method XC Functional
                     Hartree-Fock (Exact) Exchange  0.250          
          PerdewBurkeErnzerhof Exchange Functional  0.750          
            Perdew 1991 LDA Correlation Functional  1.000 local    
           PerdewBurkeErnz. Correlation Functional  1.000 non-local

             Grid Information
             ----------------
          Grid used for XC integration:  medium    
          Radial quadrature: Mura-Knowles        
          Angular quadrature: Lebedev. 
          Tag              B.-S. Rad. Rad. Pts. Rad. Cut. Ang. Pts.
          ---              ---------- --------- --------- ---------
          C                   0.70       49           6.0       434
          H                   0.35       45           7.0       434
          Grid pruning is: on 
          Number of quadrature shells:   184
          Spatial weights used:  Erf1

          Convergence Information
          -----------------------
          Convergence aids based upon iterative change in 
          total energy or number of iterations. 
          Levelshifting, if invoked, occurs when the 
          HOMO/LUMO gap drops below (HL_TOL):  1.00D-02
          DIIS, if invoked, will attempt to extrapolate 
          using up to (NFOCK): 10 stored Fock matrices.

                    Damping( 0%)  Levelshifting(0.5)       DIIS
                  --------------- ------------------- ---------------
          dE  on:    start            ASAP                start   
          dE off:    2 iters         50 iters            50 iters 


      Screening Tolerance Information
      -------------------------------
          Density screening/tol_rho:  1.00D-10
          AO Gaussian exp screening on grid/accAOfunc:  14
          CD Gaussian exp screening on grid/accCDfunc:  20
          XC Gaussian exp screening on grid/accXCfunc:  20
          Schwarz screening/accCoul:  1.00D-08


 Loading old vectors from job with title :

Methane Optimization (DFT/PBE0)


      Symmetry analysis of molecular orbitals - initial
      -------------------------------------------------


 !! scf_movecs_sym_adapt:   15 vectors were symmetry contaminated

  Symmetry fudging

 !! scf_movecs_sym_adapt:   20 vectors were symmetry contaminated

  Numbering of irreducible representations: 

     1 a'          2 a"      

  Orbital symmetries:

     1 a'          2 a'          3 a"          4 a'          5 a'      
     6 a'          7 a"          8 a'          9 a'         10 a"      
    11 a'         12 a'         13 a'         14 a'         15 a'      

   Time after variat. SCF:      0.0
   Time prior to 1st pass:      0.0

 Grid_pts file          = ./methane.gridpts.0
 Record size in doubles =  12289        No. of grid_pts per rec  =   3070
 Max. records in memory =     30        Max. recs in file   = *********


           Memory utilization after 1st SCF pass: 
           Heap Space remaining (MW):       74.02            74020913
          Stack Space remaining (MW):      123.88           123883100

   convergence    iter        energy       DeltaE   RMS-Dens  Diis-err    time
 ---------------- ----- ----------------- --------- --------- ---------  ------
 d= 0,ls=0.0,diis     1    -38.9492361426 -5.18D+01  1.66D-01  1.34D+00     0.1
 d= 0,ls=0.0,diis     2    -40.4092564534 -1.46D+00  1.70D-02  1.38D-01     0.1
 d= 0,ls=0.0,diis     3    -40.4226778324 -1.34D-02  6.76D-03  4.26D-02     0.1
 d= 0,ls=0.0,diis     4    -40.4278165876 -5.14D-03  1.82D-03  5.81D-03     0.1
 d= 0,ls=0.0,diis     5    -40.4285624422 -7.46D-04  1.67D-04  1.52D-05     0.2
 d= 0,ls=0.0,diis     6    -40.4285648271 -2.38D-06  1.46D-05  2.11D-07     0.2
 d= 0,ls=0.0,diis     7    -40.4285648561 -2.90D-08  2.70D-06  5.43D-09     0.2


         Total DFT energy =      -40.428564856102
      One electron energy =      -78.597268250397
           Coulomb energy =       32.122410757815
    Exchange-Corr. energy =       -6.764462167156
 Nuclear repulsion energy =       12.810754803637

 Numeric. integr. density =        9.999999579956

     Total iterative time =      0.2s



                  Occupations of the irreducible representations
                  ----------------------------------------------

                     irrep           alpha         beta
                     --------     --------     --------
                     a'                4.0          4.0
                     a"                1.0          1.0


                       DFT Final Molecular Orbital Analysis
                       ------------------------------------

 Vector    1  Occ=2.000000D+00  E=-1.023491D+01  Symmetry=a'
              MO Center=  1.5D-02,  3.3D-02, -4.1D-18, r^2= 2.8D-02
   Bfn.  Coefficient  Atom+Function         Bfn.  Coefficient  Atom+Function  
  ----- ------------  ---------------      ----- ------------  ---------------
     1      0.993339  1 C  s                  2      0.045786  1 C  s          

 Vector    2  Occ=2.000000D+00  E=-6.994794D-01  Symmetry=a'
              MO Center= -5.7D-02,  9.7D-02, -7.8D-16, r^2= 1.0D+00
   Bfn.  Coefficient  Atom+Function         Bfn.  Coefficient  Atom+Function  
  ----- ------------  ---------------      ----- ------------  ---------------
     6      0.391983  1 C  s                  2      0.368217  1 C  s          
     1     -0.197039  1 C  s                 20      0.142576  4 H  s          
    16      0.140287  2 H  s                 18      0.140287  3 H  s          
    22      0.085507  5 H  s                 17      0.038629  2 H  s          
    19      0.038629  3 H  s                 21      0.035274  4 H  s          

 Vector    3  Occ=2.000000D+00  E=-4.110116D-01  Symmetry=a'
              MO Center= -1.4D-01,  2.0D-02,  1.7D-14, r^2= 1.3D+00
   Bfn.  Coefficient  Atom+Function         Bfn.  Coefficient  Atom+Function  
  ----- ------------  ---------------      ----- ------------  ---------------
     4      0.322403  1 C  py                 3      0.299713  1 C  px         
    20     -0.224190  4 H  s                 21     -0.181070  4 H  s          
     8      0.169991  1 C  py                16      0.156792  2 H  s          
    18      0.156792  3 H  s                  7      0.143365  1 C  px         
    17      0.122781  2 H  s                 19      0.122781  3 H  s          

 Vector    4  Occ=2.000000D+00  E=-4.037782D-01  Symmetry=a"
              MO Center=  1.4D-01,  3.1D-01, -1.6D-14, r^2= 1.2D+00
   Bfn.  Coefficient  Atom+Function         Bfn.  Coefficient  Atom+Function  
  ----- ------------  ---------------      ----- ------------  ---------------
     5      0.447240  1 C  pz                16      0.239671  2 H  s          
    18     -0.239671  3 H  s                  9      0.222415  1 C  pz         
    17      0.193523  2 H  s                 19     -0.193523  3 H  s          
    14      0.044935  1 C  dyz        

 Vector    5  Occ=2.000000D+00  E=-3.550905D-01  Symmetry=a'
              MO Center=  6.8D-02, -4.7D-01, -1.2D-17, r^2= 1.3D+00
   Bfn.  Coefficient  Atom+Function         Bfn.  Coefficient  Atom+Function  
  ----- ------------  ---------------      ----- ------------  ---------------
     3      0.325795  1 C  px                23      0.282148  5 H  s          
     4     -0.261525  1 C  py                22      0.262499  5 H  s          
     7      0.187349  1 C  px                20     -0.178056  4 H  s          
     8     -0.173046  1 C  py                21     -0.166684  4 H  s          
     6      0.058409  1 C  s          

 Vector    6  Occ=0.000000D+00  E= 8.997220D-02  Symmetry=a'
              MO Center=  2.9D-01, -7.3D-01, -3.1D-15, r^2= 2.6D+00
   Bfn.  Coefficient  Atom+Function         Bfn.  Coefficient  Atom+Function  
  ----- ------------  ---------------      ----- ------------  ---------------
     6      1.531578  1 C  s                 23     -1.291608  5 H  s          
     8     -0.506784  1 C  py                17     -0.455127  2 H  s          
    19     -0.455127  3 H  s                 21     -0.292865  4 H  s          
     7      0.276587  1 C  px                 4     -0.243452  1 C  py         
     2      0.177178  1 C  s                 22     -0.169459  5 H  s          

 Vector    7  Occ=0.000000D+00  E= 1.530016D-01  Symmetry=a'
              MO Center= -2.6D-01,  1.5D-01,  1.6D-14, r^2= 3.3D+00
   Bfn.  Coefficient  Atom+Function         Bfn.  Coefficient  Atom+Function  
  ----- ------------  ---------------      ----- ------------  ---------------
     6      1.870719  1 C  s                 21     -1.322155  4 H  s          
    17     -0.983732  2 H  s                 19     -0.983732  3 H  s          
     8      0.696580  1 C  py                 7     -0.572746  1 C  px         
    23      0.524056  5 H  s                  4      0.240314  1 C  py         
     3     -0.182833  1 C  px                22      0.113380  5 H  s          

 Vector    8  Occ=0.000000D+00  E= 1.874904D-01  Symmetry=a"
              MO Center=  2.4D-01,  5.4D-01,  1.4D-13, r^2= 2.8D+00
   Bfn.  Coefficient  Atom+Function         Bfn.  Coefficient  Atom+Function  
  ----- ------------  ---------------      ----- ------------  ---------------
    17      1.537994  2 H  s                 19     -1.537994  3 H  s          
     9     -1.377797  1 C  pz                 5     -0.372715  1 C  pz         
    16      0.107224  2 H  s                 18     -0.107224  3 H  s          
    14      0.030634  1 C  dyz        

 Vector    9  Occ=0.000000D+00  E= 1.912199D-01  Symmetry=a'
              MO Center= -3.9D-01,  1.3D-01, -1.5D-13, r^2= 3.0D+00
   Bfn.  Coefficient  Atom+Function         Bfn.  Coefficient  Atom+Function  
  ----- ------------  ---------------      ----- ------------  ---------------
    21      1.623443  4 H  s                  7      1.074649  1 C  px         
    17     -1.009139  2 H  s                 19     -1.009139  3 H  s          
     8      0.882550  1 C  py                23      0.326244  5 H  s          
     3      0.298507  1 C  px                 4      0.242221  1 C  py         
    20      0.106529  4 H  s                  6      0.092205  1 C  s          

 Vector   10  Occ=0.000000D+00  E= 5.480165D-01  Symmetry=a"
              MO Center= -5.9D-02, -1.3D-01, -2.3D-14, r^2= 2.1D+00
   Bfn.  Coefficient  Atom+Function         Bfn.  Coefficient  Atom+Function  
  ----- ------------  ---------------      ----- ------------  ---------------
     9      1.440935  1 C  pz                 5     -0.768429  1 C  pz         
    16     -0.400336  2 H  s                 18      0.400336  3 H  s          
    17     -0.171675  2 H  s                 19      0.171675  3 H  s          
    14     -0.162076  1 C  dyz               12     -0.076103  1 C  dxz        

 Vector   11  Occ=0.000000D+00  E= 5.499683D-01  Symmetry=a'
              MO Center=  2.9D-01,  3.5D-02,  2.3D-14, r^2= 2.0D+00
   Bfn.  Coefficient  Atom+Function         Bfn.  Coefficient  Atom+Function  
  ----- ------------  ---------------      ----- ------------  ---------------
     7      1.303833  1 C  px                 3     -0.755007  1 C  px         
     8      0.537773  1 C  py                20      0.463978  4 H  s          
    23      0.220404  5 H  s                 16     -0.214027  2 H  s          
    18     -0.214027  3 H  s                 21      0.178466  4 H  s          
     4     -0.170190  1 C  py                22     -0.121653  5 H  s          

 Vector   12  Occ=0.000000D+00  E= 6.165402D-01  Symmetry=a'
              MO Center= -1.5D-01,  3.5D-01,  1.3D-16, r^2= 1.8D+00
   Bfn.  Coefficient  Atom+Function         Bfn.  Coefficient  Atom+Function  
  ----- ------------  ---------------      ----- ------------  ---------------
     8      1.554512  1 C  py                 4     -0.885858  1 C  py         
     6      0.501584  1 C  s                 23      0.310663  5 H  s          
    22      0.305693  5 H  s                  7     -0.299167  1 C  px         
    17     -0.300247  2 H  s                 19     -0.300247  3 H  s          
     3      0.279910  1 C  px                16     -0.246682  2 H  s          

 Vector   13  Occ=0.000000D+00  E= 8.098022D-01  Symmetry=a'
              MO Center=  4.3D-01, -1.2D+00,  1.0D-17, r^2= 1.4D+00
   Bfn.  Coefficient  Atom+Function         Bfn.  Coefficient  Atom+Function  
  ----- ------------  ---------------      ----- ------------  ---------------
    23      1.655025  5 H  s                 22     -1.118360  5 H  s          
     6     -0.889979  1 C  s                  8      0.528145  1 C  py         
     7     -0.508601  1 C  px                 2      0.483814  1 C  s          
    21     -0.357475  4 H  s                  4     -0.339741  1 C  py         
     3      0.287025  1 C  px                11      0.142415  1 C  dxy        

 Vector   14  Occ=0.000000D+00  E= 9.206436D-01  Symmetry=a"
              MO Center=  2.1D-01,  4.6D-01,  1.5D-13, r^2= 2.0D+00
   Bfn.  Coefficient  Atom+Function         Bfn.  Coefficient  Atom+Function  
  ----- ------------  ---------------      ----- ------------  ---------------
    17      1.393781  2 H  s                 19     -1.393781  3 H  s          
     9     -1.223323  1 C  pz                 5      0.851883  1 C  pz         
    16     -0.722845  2 H  s                 18      0.722845  3 H  s          
    14     -0.326500  1 C  dyz               12     -0.159779  1 C  dxz        

 Vector   15  Occ=0.000000D+00  E= 9.228886D-01  Symmetry=a'
              MO Center= -3.3D-01,  1.3D-01, -1.6D-13, r^2= 2.0D+00
   Bfn.  Coefficient  Atom+Function         Bfn.  Coefficient  Atom+Function  
  ----- ------------  ---------------      ----- ------------  ---------------
    21      1.546485  4 H  s                  7      1.015647  1 C  px         
    17     -0.832935  2 H  s                 19     -0.832935  3 H  s          
     8      0.708183  1 C  py                20     -0.699597  4 H  s          
     3     -0.686042  1 C  px                16      0.527765  2 H  s          
    18      0.527765  3 H  s                  4     -0.503298  1 C  py         

 Vector   16  Occ=0.000000D+00  E= 9.457730D-01  Symmetry=a'
              MO Center= -3.2D-01,  1.8D-01,  7.2D-15, r^2= 1.8D+00
   Bfn.  Coefficient  Atom+Function         Bfn.  Coefficient  Atom+Function  
  ----- ------------  ---------------      ----- ------------  ---------------
    20      0.864314  4 H  s                 21     -0.794947  4 H  s          
    16      0.642709  2 H  s                 18      0.642709  3 H  s          
     6      0.589501  1 C  s                 17     -0.542256  2 H  s          
    19     -0.542256  3 H  s                  2     -0.474349  1 C  s          
     8      0.403837  1 C  py                 4     -0.330149  1 C  py         

 Vector   17  Occ=0.000000D+00  E= 1.089901D+00  Symmetry=a'
              MO Center= -3.2D-02,  2.3D-02,  3.3D-15, r^2= 2.3D+00
   Bfn.  Coefficient  Atom+Function         Bfn.  Coefficient  Atom+Function  
  ----- ------------  ---------------      ----- ------------  ---------------
     6      4.952283  1 C  s                  2     -2.029466  1 C  s          
    21     -1.149765  4 H  s                 17     -1.089586  2 H  s          
    19     -1.089586  3 H  s                 22     -0.416440  5 H  s          
    23     -0.398606  5 H  s                  7     -0.330654  1 C  px         
    20     -0.239146  4 H  s                 13     -0.187293  1 C  dyy        

 Vector   18  Occ=0.000000D+00  E= 1.673787D+00  Symmetry=a"
              MO Center=  2.0D-02,  3.1D-02, -2.4D-18, r^2= 6.1D-01
   Bfn.  Coefficient  Atom+Function         Bfn.  Coefficient  Atom+Function  
  ----- ------------  ---------------      ----- ------------  ---------------
    12      1.586355  1 C  dxz               14     -0.695104  1 C  dyz        

 Vector   19  Occ=0.000000D+00  E= 1.684966D+00  Symmetry=a'
              MO Center=  9.9D-03,  1.5D-02, -3.6D-18, r^2= 6.4D-01
   Bfn.  Coefficient  Atom+Function         Bfn.  Coefficient  Atom+Function  
  ----- ------------  ---------------      ----- ------------  ---------------
    11      1.320303  1 C  dxy               13      0.629749  1 C  dyy        
     6      0.579236  1 C  s                 15     -0.418796  1 C  dzz        
    10     -0.224213  1 C  dxx                2     -0.213602  1 C  s          
    22     -0.131363  5 H  s                 21     -0.120601  4 H  s          
    20     -0.111494  4 H  s                 17     -0.090581  2 H  s          

 Vector   20  Occ=0.000000D+00  E= 2.042584D+00  Symmetry=a'
              MO Center=  4.3D-02, -3.3D-02,  4.7D-17, r^2= 8.7D-01
   Bfn.  Coefficient  Atom+Function         Bfn.  Coefficient  Atom+Function  
  ----- ------------  ---------------      ----- ------------  ---------------
    11      1.172734  1 C  dxy               13     -0.783801  1 C  dyy        
    15      0.577803  1 C  dzz               22      0.486125  5 H  s          
     6      0.418240  1 C  s                  8      0.408721  1 C  py         
    16     -0.321044  2 H  s                 18     -0.321044  3 H  s          
    20     -0.293741  4 H  s                 10      0.153157  1 C  dxx        

 Vector   21  Occ=0.000000D+00  E= 2.260016D+00  Symmetry=a"
              MO Center=  5.0D-02,  1.1D-01, -1.9D-16, r^2= 9.0D-01
   Bfn.  Coefficient  Atom+Function         Bfn.  Coefficient  Atom+Function  
  ----- ------------  ---------------      ----- ------------  ---------------
    14      1.792328  1 C  dyz               12      0.785657  1 C  dxz        
    16     -0.680756  2 H  s                 18      0.680756  3 H  s          
     9      0.430899  1 C  pz                 5      0.154817  1 C  pz         
    17      0.079760  2 H  s                 19     -0.079760  3 H  s          

 Vector   22  Occ=0.000000D+00  E= 2.267731D+00  Symmetry=a'
              MO Center= -7.2D-02,  4.3D-02,  3.1D-16, r^2= 9.0D-01
   Bfn.  Coefficient  Atom+Function         Bfn.  Coefficient  Atom+Function  
  ----- ------------  ---------------      ----- ------------  ---------------
    10      1.090887  1 C  dxx               15     -0.798859  1 C  dzz        
    20     -0.790200  4 H  s                 16      0.390131  2 H  s          
    18      0.390131  3 H  s                  7     -0.357825  1 C  px         
    13     -0.282456  1 C  dyy                8     -0.268448  1 C  py         
     3     -0.136186  1 C  px                11      0.131713  1 C  dxy        

 Vector   23  Occ=0.000000D+00  E= 4.182749D+00  Symmetry=a'
              MO Center=  1.3D-02,  3.3D-02, -1.1D-16, r^2= 7.7D-01
   Bfn.  Coefficient  Atom+Function         Bfn.  Coefficient  Atom+Function  
  ----- ------------  ---------------      ----- ------------  ---------------
     2      2.956604  1 C  s                  6      2.275462  1 C  s          
    15     -1.896966  1 C  dzz               10     -1.869819  1 C  dxx        
    13     -1.837320  1 C  dyy               21     -0.521297  4 H  s          
    17     -0.489683  2 H  s                 19     -0.489683  3 H  s          
     1     -0.484742  1 C  s                 23     -0.291862  5 H  s          


 center of mass
 --------------
 x =   0.01030041 y =   0.02306693 z =   0.00000000

 moments of inertia (a.u.)
 ------------------
          14.012661361195           0.000000000000           0.000000000000
           0.000000000000          10.912097030521           0.000000000000
           0.000000000000           0.000000000000          13.497188538894

     Multipole analysis of the density
     ---------------------------------

     L   x y z        total         alpha         beta         nuclear
     -   - - -        -----         -----         ----         -------
     0   0 0 0     -0.000000     -5.000000     -5.000000     10.000000

     1   1 0 0     -0.076592     -0.038296     -0.038296     -0.000000
     1   0 1 0      0.054391      0.027195      0.027195      0.000000
     1   0 0 1     -0.000000     -0.000000     -0.000000      0.000000

     2   2 0 0     -6.509526     -5.832310     -5.832310      5.155094
     2   1 1 0      0.183568      0.094983      0.094983     -0.006398
     2   1 0 1      0.000000      0.000000      0.000000      0.000000
     2   0 2 0     -5.931272     -7.075693     -7.075693      8.220113
     2   0 1 1     -0.000000     -0.000000     -0.000000      0.000000
     2   0 0 2     -6.237920     -5.953671     -5.953671      5.669422


            General Information
            -------------------
          SCF calculation type: DFT
          Wavefunction type:  closed shell.
          No. of atoms     :     5
          No. of electrons :    10
           Alpha electrons :     5
            Beta electrons :     5
          Charge           :     0
          Spin multiplicity:     1
          Use of symmetry is: on ; symmetry adaption is: on 
          Maximum number of iterations:  50
          AO basis - number of functions:    23
                     number of shells:    14
          Convergence on energy requested:  1.00D-06
          Convergence on density requested:  1.00D-05
          Convergence on gradient requested:  5.00D-04

              XC Information
              --------------
                         PBE0 Method XC Functional
                     Hartree-Fock (Exact) Exchange  0.250          
          PerdewBurkeErnzerhof Exchange Functional  0.750          
            Perdew 1991 LDA Correlation Functional  1.000 local    
           PerdewBurkeErnz. Correlation Functional  1.000 non-local

             Grid Information
             ----------------
          Grid used for XC integration:  medium    
          Radial quadrature: Mura-Knowles        
          Angular quadrature: Lebedev. 
          Tag              B.-S. Rad. Rad. Pts. Rad. Cut. Ang. Pts.
          ---              ---------- --------- --------- ---------
          C                   0.70       49           6.0       434
          H                   0.35       45           7.0       434
          Grid pruning is: on 
          Number of quadrature shells:   184
          Spatial weights used:  Erf1

          Convergence Information
          -----------------------
          Convergence aids based upon iterative change in 
          total energy or number of iterations. 
          Levelshifting, if invoked, occurs when the 
          HOMO/LUMO gap drops below (HL_TOL):  1.00D-02
          DIIS, if invoked, will attempt to extrapolate 
          using up to (NFOCK): 10 stored Fock matrices.

                    Damping( 0%)  Levelshifting(0.5)       DIIS
                  --------------- ------------------- ---------------
          dE  on:    start            ASAP                start   
          dE off:    2 iters         50 iters            50 iters 


      Screening Tolerance Information
      -------------------------------
          Density screening/tol_rho:  1.00D-10
          AO Gaussian exp screening on grid/accAOfunc:  14
          CD Gaussian exp screening on grid/accCDfunc:  20
          XC Gaussian exp screening on grid/accXCfunc:  20
          Schwarz screening/accCoul:  1.00D-08



                            NWChem DFT Gradient Module
                            --------------------------


                          Methane Optimization (DFT/PBE0)



  charge          =   0.00
  wavefunction    = closed shell

  Using symmetry


                         DFT ENERGY GRADIENTS

    atom               coordinates                        gradient
                 x          y          z           x          y          z
   1 C       0.027739   0.062118   0.000000   -0.005384   0.076908   0.000000
   2 H       0.513163   1.149187   1.683660   -0.005027   0.008515  -0.002677
   3 H       0.513163   1.149187  -1.683660   -0.005027   0.008515   0.002677
   4 H      -1.995033  -0.338456   0.000000    0.004921  -0.009437   0.000000
   5 H       0.802275  -2.332627   0.000000    0.010518  -0.084502   0.000000

                 ----------------------------------------
                 |  Time  |  1-e(secs)   |  2-e(secs)   |
                 ----------------------------------------
                 |  CPU   |       0.00   |       0.02   |
                 ----------------------------------------
                 |  WALL  |       0.00   |       0.01   |
                 ----------------------------------------
  no constraints, skipping    0.0000000000000000     

@ Step       Energy      Delta E   Gmax     Grms     Xrms     Xmax   Walltime
@ ---- ---------------- -------- -------- -------- -------- -------- --------
@    0     -40.42856486  0.0D+00  0.08364  0.02715  0.00000  0.00000      0.2
                                                                    



                                Z-matrix (autoz)
                                -------- 

 Units are Angstrom for bonds and degrees for angles

      Type          Name      I     J     K     L     M      Value     Gradient
      ----------- --------  ----- ----- ----- ----- ----- ---------- ----------
    1 Stretch                  1     2                       1.09119    0.00112
    2 Stretch                  1     3                       1.09119    0.00112
    3 Stretch                  1     4                       1.09119   -0.00299
    4 Stretch                  1     5                       1.33188    0.08364
    5 Bend                     2     1     3               109.47122   -0.00197
    6 Bend                     2     1     4               109.47122   -0.00246
    7 Bend                     2     1     5               115.41368    0.00900
    8 Bend                     3     1     4               109.47122   -0.00246
    9 Bend                     3     1     5               115.41368    0.00900
   10 Bend                     4     1     5                96.72137   -0.01361

  no constraints, skipping    0.0000000000000000     
  no constraints, skipping    0.0000000000000000     
  no constraints, skipping    0.0000000000000000     
  no constraints, skipping    0.0000000000000000     
  no constraints, skipping    0.0000000000000000     
  no constraints, skipping    0.0000000000000000     
  no constraints, skipping    0.0000000000000000     
  no constraints, skipping    0.0000000000000000     

                                 NWChem DFT Module
                                 -----------------


                          Methane Optimization (DFT/PBE0)




 Summary of "ao basis" -> "ao basis" (cartesian)
 ------------------------------------------------------------------------------
       Tag                 Description            Shells   Functions and Types
 ---------------- ------------------------------  ------  ---------------------
 C                           6-31G*                  6       15   3s2p1d
 H                           6-31G*                  2        2   2s


      Symmetry analysis of basis
      --------------------------

        a'         17
        a"          6

  Caching 1-el integrals 

            General Information
            -------------------
          SCF calculation type: DFT
          Wavefunction type:  closed shell.
          No. of atoms     :     5
          No. of electrons :    10
           Alpha electrons :     5
            Beta electrons :     5
          Charge           :     0
          Spin multiplicity:     1
          Use of symmetry is: on ; symmetry adaption is: on 
          Maximum number of iterations:  50
          AO basis - number of functions:    23
                     number of shells:    14
          Convergence on energy requested:  1.00D-06
          Convergence on density requested:  1.00D-05
          Convergence on gradient requested:  5.00D-04

              XC Information
              --------------
                         PBE0 Method XC Functional
                     Hartree-Fock (Exact) Exchange  0.250          
          PerdewBurkeErnzerhof Exchange Functional  0.750          
            Perdew 1991 LDA Correlation Functional  1.000 local    
           PerdewBurkeErnz. Correlation Functional  1.000 non-local

             Grid Information
             ----------------
          Grid used for XC integration:  medium    
          Radial quadrature: Mura-Knowles        
          Angular quadrature: Lebedev. 
          Tag              B.-S. Rad. Rad. Pts. Rad. Cut. Ang. Pts.
          ---              ---------- --------- --------- ---------
          C                   0.70       49           6.0       434
          H                   0.35       45           7.0       434
          Grid pruning is: on 
          Number of quadrature shells:   184
          Spatial weights used:  Erf1

          Convergence Information
          -----------------------
          Convergence aids based upon iterative change in 
          total energy or number of iterations. 
          Levelshifting, if invoked, occurs when the 
          HOMO/LUMO gap drops below (HL_TOL):  1.00D-02
          DIIS, if invoked, will attempt to extrapolate 
          using up to (NFOCK): 10 stored Fock matrices.

                    Damping( 0%)  Levelshifting(0.5)       DIIS
                  --------------- ------------------- ---------------
          dE  on:    start            ASAP                start   
          dE off:    2 iters         50 iters            50 iters 


      Screening Tolerance Information
      -------------------------------
          Density screening/tol_rho:  1.00D-10
          AO Gaussian exp screening on grid/accAOfunc:  14
          CD Gaussian exp screening on grid/accCDfunc:  20
          XC Gaussian exp screening on grid/accXCfunc:  20
          Schwarz screening/accCoul:  1.00D-08


 Loading old vectors from job with title :

Methane Optimization (DFT/PBE0)


      Symmetry analysis of molecular orbitals - initial
      -------------------------------------------------

  Numbering of irreducible representations: 

     1 a'          2 a"      

  Orbital symmetries:

     1 a'          2 a'          3 a'          4 a"          5 a'      
     6 a'          7 a'          8 a"          9 a'         10 a"      
    11 a'         12 a'         13 a'         14 a"         15 a'      

   Time after variat. SCF:      0.3
   Time prior to 1st pass:      0.3

 Grid_pts file          = ./methane.gridpts.0
 Record size in doubles =  12289        No. of grid_pts per rec  =   3070
 Max. records in memory =     30        Max. recs in file   = *********


           Memory utilization after 1st SCF pass: 
           Heap Space remaining (MW):       74.02            74020913
          Stack Space remaining (MW):      123.88           123883100

   convergence    iter        energy       DeltaE   RMS-Dens  Diis-err    time
 ---------------- ----- ----------------- --------- --------- ---------  ------
 d= 0,ls=0.0,diis     1    -40.4476140318 -5.35D+01  4.65D-03  1.27D-02     0.3
 d= 0,ls=0.0,diis     2    -40.4497120955 -2.10D-03  1.80D-03  2.51D-03     0.3
 d= 0,ls=0.0,diis     3    -40.4499354251 -2.23D-04  6.81D-04  7.55D-04     0.3
 d= 0,ls=0.0,diis     4    -40.4500301817 -9.48D-05  9.60D-05  9.20D-06     0.4
 d= 0,ls=0.0,diis     5    -40.4500314460 -1.26D-06  8.66D-06  5.90D-08     0.4
 d= 0,ls=0.0,diis     6    -40.4500314557 -9.75D-09  7.59D-07  2.78D-10     0.4


         Total DFT energy =      -40.450031455715
      One electron energy =      -79.158332768385
           Coulomb energy =       32.422562559830
    Exchange-Corr. energy =       -6.799241802329
 Nuclear repulsion energy =       13.084980555170

 Numeric. integr. density =       10.000001082856

     Total iterative time =      0.2s



                  Occupations of the irreducible representations
                  ----------------------------------------------

                     irrep           alpha         beta
                     --------     --------     --------
                     a'                4.0          4.0
                     a"                1.0          1.0


                       DFT Final Molecular Orbital Analysis
                       ------------------------------------

 Vector    1  Occ=2.000000D+00  E=-1.022331D+01  Symmetry=a'
              MO Center= -1.7D-02,  5.8D-03, -1.1D-20, r^2= 2.8D-02
   Bfn.  Coefficient  Atom+Function         Bfn.  Coefficient  Atom+Function  
  ----- ------------  ---------------      ----- ------------  ---------------
     1      0.993306  1 C  s                  2      0.046146  1 C  s          

 Vector    2  Occ=2.000000D+00  E=-7.027821D-01  Symmetry=a'
              MO Center= -3.9D-02,  3.2D-02, -1.5D-15, r^2= 1.0D+00
   Bfn.  Coefficient  Atom+Function         Bfn.  Coefficient  Atom+Function  
  ----- ------------  ---------------      ----- ------------  ---------------
     6      0.387887  1 C  s                  2      0.367920  1 C  s          
     1     -0.197424  1 C  s                 16      0.136783  2 H  s          
    18      0.136783  3 H  s                 20      0.136046  4 H  s          
    22      0.109355  5 H  s                 17      0.036723  2 H  s          
    19      0.036723  3 H  s                 21      0.035684  4 H  s          

 Vector    3  Occ=2.000000D+00  E=-4.042672D-01  Symmetry=a'
              MO Center= -2.3D-01,  4.5D-02,  1.5D-13, r^2= 1.3D+00
   Bfn.  Coefficient  Atom+Function         Bfn.  Coefficient  Atom+Function  
  ----- ------------  ---------------      ----- ------------  ---------------
     3      0.346746  1 C  px                 4      0.276576  1 C  py         
    20     -0.246486  4 H  s                 21     -0.199039  4 H  s          
     7      0.174133  1 C  px                16      0.154115  2 H  s          
    18      0.154115  3 H  s                  8      0.143226  1 C  py         
    17      0.123250  2 H  s                 19      0.123250  3 H  s          

 Vector    4  Occ=2.000000D+00  E=-4.029782D-01  Symmetry=a"
              MO Center=  1.3D-01,  2.6D-01, -1.5D-13, r^2= 1.2D+00
   Bfn.  Coefficient  Atom+Function         Bfn.  Coefficient  Atom+Function  
  ----- ------------  ---------------      ----- ------------  ---------------
     5      0.445493  1 C  pz                16      0.238673  2 H  s          
    18     -0.238673  3 H  s                  9      0.225572  1 C  pz         
    17      0.191730  2 H  s                 19     -0.191730  3 H  s          
    14      0.039829  1 C  dyz        

 Vector    5  Occ=2.000000D+00  E=-3.772491D-01  Symmetry=a'
              MO Center=  7.5D-02, -4.2D-01, -3.7D-17, r^2= 1.3D+00
   Bfn.  Coefficient  Atom+Function         Bfn.  Coefficient  Atom+Function  
  ----- ------------  ---------------      ----- ------------  ---------------
     4      0.330045  1 C  py                22     -0.281223  5 H  s          
     3     -0.273944  1 C  px                23     -0.261498  5 H  s          
     8      0.189522  1 C  py                 7     -0.151575  1 C  px         
    20      0.150624  4 H  s                 21      0.131324  4 H  s          
    16      0.053631  2 H  s                 18      0.053631  3 H  s          

 Vector    6  Occ=0.000000D+00  E= 1.216856D-01  Symmetry=a'
              MO Center=  1.4D-01, -3.8D-01, -4.0D-15, r^2= 3.4D+00
   Bfn.  Coefficient  Atom+Function         Bfn.  Coefficient  Atom+Function  
  ----- ------------  ---------------      ----- ------------  ---------------
     6      2.281209  1 C  s                 23     -1.260963  5 H  s          
    17     -0.775490  2 H  s                 19     -0.775490  3 H  s          
    21     -0.743103  4 H  s                  8     -0.314545  1 C  py         
     2      0.191730  1 C  s                  1     -0.154896  1 C  s          
     7      0.143139  1 C  px                 4     -0.125273  1 C  py         

 Vector    7  Occ=0.000000D+00  E= 1.639957D-01  Symmetry=a'
              MO Center= -4.8D-02, -2.4D-01,  8.7D-18, r^2= 3.0D+00
   Bfn.  Coefficient  Atom+Function         Bfn.  Coefficient  Atom+Function  
  ----- ------------  ---------------      ----- ------------  ---------------
    23      1.187720  5 H  s                 21     -1.059919  4 H  s          
     6      0.988815  1 C  s                  8      0.962810  1 C  py         
    17     -0.769432  2 H  s                 19     -0.769432  3 H  s          
     7     -0.623242  1 C  px                 4      0.311198  1 C  py         
     3     -0.198237  1 C  px                22      0.145209  5 H  s          

 Vector    8  Occ=0.000000D+00  E= 1.898535D-01  Symmetry=a"
              MO Center=  2.6D-01,  4.9D-01,  1.3D-13, r^2= 2.8D+00
   Bfn.  Coefficient  Atom+Function         Bfn.  Coefficient  Atom+Function  
  ----- ------------  ---------------      ----- ------------  ---------------
    17      1.546862  2 H  s                 19     -1.546862  3 H  s          
     9     -1.390035  1 C  pz                 5     -0.371841  1 C  pz         
    16      0.105430  2 H  s                 18     -0.105430  3 H  s          
    14      0.031366  1 C  dyz        

 Vector    9  Occ=0.000000D+00  E= 1.902428D-01  Symmetry=a'
              MO Center= -4.6D-01,  1.1D-01, -1.2D-13, r^2= 3.0D+00
   Bfn.  Coefficient  Atom+Function         Bfn.  Coefficient  Atom+Function  
  ----- ------------  ---------------      ----- ------------  ---------------
    21      1.660300  4 H  s                  7      1.162042  1 C  px         
    17     -0.987036  2 H  s                 19     -0.987036  3 H  s          
     8      0.758584  1 C  py                 3      0.315094  1 C  px         
    23      0.210324  5 H  s                  4      0.206189  1 C  py         
    20      0.113415  4 H  s                  6      0.088090  1 C  s          

 Vector   10  Occ=0.000000D+00  E= 5.510604D-01  Symmetry=a"
              MO Center= -1.1D-01, -1.5D-01, -1.0D-14, r^2= 2.1D+00
   Bfn.  Coefficient  Atom+Function         Bfn.  Coefficient  Atom+Function  
  ----- ------------  ---------------      ----- ------------  ---------------
     9      1.452022  1 C  pz                 5     -0.766746  1 C  pz         
    16     -0.403881  2 H  s                 18      0.403881  3 H  s          
    17     -0.181165  2 H  s                 19      0.181165  3 H  s          
    14     -0.155342  1 C  dyz               12     -0.091288  1 C  dxz        

 Vector   11  Occ=0.000000D+00  E= 5.536112D-01  Symmetry=a'
              MO Center=  2.0D-01, -4.3D-03,  1.1D-14, r^2= 2.0D+00
   Bfn.  Coefficient  Atom+Function         Bfn.  Coefficient  Atom+Function  
  ----- ------------  ---------------      ----- ------------  ---------------
     7      1.351998  1 C  px                 3     -0.733163  1 C  px         
     8      0.526333  1 C  py                20      0.476988  4 H  s          
     4     -0.236110  1 C  py                16     -0.218239  2 H  s          
    18     -0.218239  3 H  s                 21      0.206885  4 H  s          
    17     -0.112158  2 H  s                 19     -0.112158  3 H  s          

 Vector   12  Occ=0.000000D+00  E= 5.801389D-01  Symmetry=a'
              MO Center= -1.4D-01,  2.3D-01, -1.2D-15, r^2= 2.0D+00
   Bfn.  Coefficient  Atom+Function         Bfn.  Coefficient  Atom+Function  
  ----- ------------  ---------------      ----- ------------  ---------------
     8      1.347984  1 C  py                 4     -0.789074  1 C  py         
    22      0.444439  5 H  s                  7     -0.386297  1 C  px         
     3      0.275184  1 C  px                 6      0.272645  1 C  s          
    16     -0.214405  2 H  s                 18     -0.214405  3 H  s          
    17     -0.140591  2 H  s                 19     -0.140591  3 H  s          

 Vector   13  Occ=0.000000D+00  E= 8.579559D-01  Symmetry=a'
              MO Center=  3.8D-01, -9.6D-01,  8.3D-17, r^2= 1.5D+00
   Bfn.  Coefficient  Atom+Function         Bfn.  Coefficient  Atom+Function  
  ----- ------------  ---------------      ----- ------------  ---------------
    23      1.757455  5 H  s                 22     -1.049097  5 H  s          
     8      0.875677  1 C  py                 6     -0.621784  1 C  s          
     4     -0.583946  1 C  py                 7     -0.540222  1 C  px         
    21     -0.408196  4 H  s                  2      0.361832  1 C  s          
     3      0.354216  1 C  px                11      0.193100  1 C  dxy        

 Vector   14  Occ=0.000000D+00  E= 9.247352D-01  Symmetry=a'
              MO Center= -5.2D-01,  3.1D-02, -8.0D-17, r^2= 1.9D+00
   Bfn.  Coefficient  Atom+Function         Bfn.  Coefficient  Atom+Function  
  ----- ------------  ---------------      ----- ------------  ---------------
    21      1.621566  4 H  s                  7      1.069065  1 C  px         
    20     -0.845165  4 H  s                 17     -0.769261  2 H  s          
    19     -0.769261  3 H  s                  3     -0.744191  1 C  px         
     8      0.593987  1 C  py                 4     -0.412272  1 C  py         
    16      0.403022  2 H  s                 18      0.403022  3 H  s          

 Vector   15  Occ=0.000000D+00  E= 9.259085D-01  Symmetry=a"
              MO Center=  2.1D-01,  4.1D-01,  1.2D-14, r^2= 1.9D+00
   Bfn.  Coefficient  Atom+Function         Bfn.  Coefficient  Atom+Function  
  ----- ------------  ---------------      ----- ------------  ---------------
    17      1.392419  2 H  s                 19     -1.392419  3 H  s          
     9     -1.230353  1 C  pz                 5      0.856081  1 C  pz         
    16     -0.722026  2 H  s                 18      0.722026  3 H  s          
    14     -0.312430  1 C  dyz               12     -0.188832  1 C  dxz        

 Vector   16  Occ=0.000000D+00  E= 9.497126D-01  Symmetry=a'
              MO Center= -1.0D-01,  2.4D-01, -1.1D-14, r^2= 1.9D+00
   Bfn.  Coefficient  Atom+Function         Bfn.  Coefficient  Atom+Function  
  ----- ------------  ---------------      ----- ------------  ---------------
     6      0.906770  1 C  s                 16      0.723107  2 H  s          
    18      0.723107  3 H  s                 17     -0.718738  2 H  s          
    19     -0.718738  3 H  s                 20      0.690282  4 H  s          
     2     -0.651865  1 C  s                 21     -0.604664  4 H  s          
     8      0.438457  1 C  py                 4     -0.319960  1 C  py         

 Vector   17  Occ=0.000000D+00  E= 1.106692D+00  Symmetry=a'
              MO Center= -2.2D-02, -1.2D-02, -5.3D-16, r^2= 2.3D+00
   Bfn.  Coefficient  Atom+Function         Bfn.  Coefficient  Atom+Function  
  ----- ------------  ---------------      ----- ------------  ---------------
     6      5.199500  1 C  s                  2     -2.045469  1 C  s          
    17     -1.069039  2 H  s                 19     -1.069039  3 H  s          
    21     -1.054013  4 H  s                 23     -0.713638  5 H  s          
    22     -0.382368  5 H  s                 20     -0.267627  4 H  s          
    16     -0.218714  2 H  s                 18     -0.218714  3 H  s          

 Vector   18  Occ=0.000000D+00  E= 1.668130D+00  Symmetry=a'
              MO Center= -1.9D-02,  1.6D-03,  1.9D-17, r^2= 6.2D-01
   Bfn.  Coefficient  Atom+Function         Bfn.  Coefficient  Atom+Function  
  ----- ------------  ---------------      ----- ------------  ---------------
    11      1.308255  1 C  dxy               13      0.632951  1 C  dyy        
    15     -0.458936  1 C  dzz                6      0.207867  1 C  s          
    10     -0.179721  1 C  dxx                2     -0.071088  1 C  s          
    20     -0.043298  4 H  s                 22     -0.040873  5 H  s          
    17     -0.035382  2 H  s                 19     -0.035382  3 H  s          

 Vector   19  Occ=0.000000D+00  E= 1.669396D+00  Symmetry=a"
              MO Center= -1.5D-02,  4.5D-03,  6.8D-18, r^2= 6.1D-01
   Bfn.  Coefficient  Atom+Function         Bfn.  Coefficient  Atom+Function  
  ----- ------------  ---------------      ----- ------------  ---------------
    12      1.502705  1 C  dxz               14     -0.861289  1 C  dyz        

 Vector   20  Occ=0.000000D+00  E= 2.161270D+00  Symmetry=a'
              MO Center=  2.2D-02, -7.6D-02,  7.1D-17, r^2= 8.9D-01
   Bfn.  Coefficient  Atom+Function         Bfn.  Coefficient  Atom+Function  
  ----- ------------  ---------------      ----- ------------  ---------------
    11      1.234971  1 C  dxy               13     -0.805394  1 C  dyy        
    22      0.651786  5 H  s                 15      0.566452  1 C  dzz        
     8      0.370359  1 C  py                16     -0.312778  2 H  s          
    18     -0.312778  3 H  s                 20     -0.281855  4 H  s          
    10      0.208055  1 C  dxx                6      0.169193  1 C  s          

 Vector   21  Occ=0.000000D+00  E= 2.255131D+00  Symmetry=a'
              MO Center= -1.1D-01,  1.7D-02,  7.6D-16, r^2= 9.0D-01
   Bfn.  Coefficient  Atom+Function         Bfn.  Coefficient  Atom+Function  
  ----- ------------  ---------------      ----- ------------  ---------------
    10      1.085826  1 C  dxx               15     -0.802597  1 C  dzz        
    20     -0.779772  4 H  s                  7     -0.391629  1 C  px         
    16      0.387971  2 H  s                 18      0.387971  3 H  s          
    13     -0.279216  1 C  dyy                8     -0.209050  1 C  py         
     3     -0.135159  1 C  px                21      0.083293  4 H  s          

 Vector   22  Occ=0.000000D+00  E= 2.259914D+00  Symmetry=a"
              MO Center=  2.6D-02,  8.3D-02, -8.0D-16, r^2= 9.0D-01
   Bfn.  Coefficient  Atom+Function         Bfn.  Coefficient  Atom+Function  
  ----- ------------  ---------------      ----- ------------  ---------------
    14      1.695527  1 C  dyz               12      0.973260  1 C  dxz        
    16     -0.680789  2 H  s                 18      0.680789  3 H  s          
     9      0.440214  1 C  pz                 5      0.156314  1 C  pz         
    17      0.072947  2 H  s                 19     -0.072947  3 H  s          

 Vector   23  Occ=0.000000D+00  E= 4.199666D+00  Symmetry=a'
              MO Center= -1.8D-02,  4.0D-03,  4.0D-16, r^2= 7.7D-01
   Bfn.  Coefficient  Atom+Function         Bfn.  Coefficient  Atom+Function  
  ----- ------------  ---------------      ----- ------------  ---------------
     2      2.948044  1 C  s                  6      2.358585  1 C  s          
    15     -1.891099  1 C  dzz               10     -1.875580  1 C  dxx        
    13     -1.851706  1 C  dyy               17     -0.495851  2 H  s          
    19     -0.495851  3 H  s                 21     -0.498261  4 H  s          
     1     -0.486725  1 C  s                 23     -0.396148  5 H  s          


 center of mass
 --------------
 x =  -0.03138305 y =  -0.01203511 z =   0.00000000

 moments of inertia (a.u.)
 ------------------
          12.365135488940           0.052276555046           0.000000000000
           0.052276555046          11.532590665129           0.000000000000
           0.000000000000           0.000000000000          12.336359415100

     Multipole analysis of the density
     ---------------------------------

     L   x y z        total         alpha         beta         nuclear
     -   - - -        -----         -----         ----         -------
     0   0 0 0     -0.000000     -5.000000     -5.000000     10.000000

     1   1 0 0     -0.018264      0.142849      0.142849     -0.303962
     1   0 1 0      0.018716      0.137343      0.137343     -0.255969
     1   0 0 1      0.000000      0.000000      0.000000      0.000000

     2   2 0 0     -6.230240     -5.973350     -5.973350      5.716461
     2   1 1 0      0.080780      0.062255      0.062255     -0.043730
     2   1 0 1      0.000000      0.000000      0.000000      0.000000
     2   0 2 0     -6.125596     -6.330262     -6.330262      6.534928
     2   0 1 1     -0.000000     -0.000000     -0.000000      0.000000
     2   0 0 2     -6.154366     -5.945083     -5.945083      5.735801

 Line search: 
     step= 1.00 grad=-2.7D-02 hess= 5.8D-03 energy=    -40.450031 mode=downhill
 new step= 2.36                   predicted energy=    -40.460744
  no constraints, skipping    0.0000000000000000     
  no constraints, skipping    0.0000000000000000     
  no constraints, skipping    0.0000000000000000     
  no constraints, skipping    0.0000000000000000     
  no constraints, skipping    0.0000000000000000     
  no constraints, skipping    0.0000000000000000     
  no constraints, skipping    0.0000000000000000     
  no constraints, skipping    0.0000000000000000     

          --------
          Step   1
          --------


                         Geometry "geometry" -> "geometry"
                         ---------------------------------

 Output coordinates in angstroms (scale by  1.889725989 to convert to a.u.)

  No.       Tag          Charge          X              Y              Z
 ---- ---------------- ---------- -------------- -------------- --------------
    1 C                    6.0000    -0.04855322    -0.02988107     0.00000000
    2 H                    1.0000     0.32339376     0.45725942     0.90187722
    3 H                    1.0000     0.32339376     0.45725942    -0.90187722
    4 H                    1.0000    -1.14925133    -0.13086121     0.00000000
    5 H                    1.0000     0.47762398    -0.91813428     0.00000000

      Atomic Mass 
      ----------- 

      C                 12.000000
      H                  1.007825


 Effective nuclear repulsion energy (a.u.)      13.5784537805

            Nuclear Dipole moment (a.u.) 
            ----------------------------
        X                 Y               Z
 ---------------- ---------------- ----------------
    -0.5974542043    -0.5929262360     0.0000000000

      Symmetry information
      --------------------

 Group name             Cs        
 Group number              2
 Group order               2
 No. of unique centers     4

      Symmetry unique atoms

     1    2    4    5


                                 NWChem DFT Module
                                 -----------------


                          Methane Optimization (DFT/PBE0)




 Summary of "ao basis" -> "ao basis" (cartesian)
 ------------------------------------------------------------------------------
       Tag                 Description            Shells   Functions and Types
 ---------------- ------------------------------  ------  ---------------------
 C                           6-31G*                  6       15   3s2p1d
 H                           6-31G*                  2        2   2s


      Symmetry analysis of basis
      --------------------------

        a'         17
        a"          6

  Caching 1-el integrals 

            General Information
            -------------------
          SCF calculation type: DFT
          Wavefunction type:  closed shell.
          No. of atoms     :     5
          No. of electrons :    10
           Alpha electrons :     5
            Beta electrons :     5
          Charge           :     0
          Spin multiplicity:     1
          Use of symmetry is: on ; symmetry adaption is: on 
          Maximum number of iterations:  50
          AO basis - number of functions:    23
                     number of shells:    14
          Convergence on energy requested:  1.00D-06
          Convergence on density requested:  1.00D-05
          Convergence on gradient requested:  5.00D-04

              XC Information
              --------------
                         PBE0 Method XC Functional
                     Hartree-Fock (Exact) Exchange  0.250          
          PerdewBurkeErnzerhof Exchange Functional  0.750          
            Perdew 1991 LDA Correlation Functional  1.000 local    
           PerdewBurkeErnz. Correlation Functional  1.000 non-local

             Grid Information
             ----------------
          Grid used for XC integration:  medium    
          Radial quadrature: Mura-Knowles        
          Angular quadrature: Lebedev. 
          Tag              B.-S. Rad. Rad. Pts. Rad. Cut. Ang. Pts.
          ---              ---------- --------- --------- ---------
          C                   0.70       49           6.0       434
          H                   0.35       45           7.0       434
          Grid pruning is: on 
          Number of quadrature shells:   184
          Spatial weights used:  Erf1

          Convergence Information
          -----------------------
          Convergence aids based upon iterative change in 
          total energy or number of iterations. 
          Levelshifting, if invoked, occurs when the 
          HOMO/LUMO gap drops below (HL_TOL):  1.00D-02
          DIIS, if invoked, will attempt to extrapolate 
          using up to (NFOCK): 10 stored Fock matrices.

                    Damping( 0%)  Levelshifting(0.5)       DIIS
                  --------------- ------------------- ---------------
          dE  on:    start            ASAP                start   
          dE off:    2 iters         50 iters            50 iters 


      Screening Tolerance Information
      -------------------------------
          Density screening/tol_rho:  1.00D-10
          AO Gaussian exp screening on grid/accAOfunc:  14
          CD Gaussian exp screening on grid/accCDfunc:  20
          XC Gaussian exp screening on grid/accXCfunc:  20
          Schwarz screening/accCoul:  1.00D-08


 Loading old vectors from job with title :

Methane Optimization (DFT/PBE0)


      Symmetry analysis of molecular orbitals - initial
      -------------------------------------------------

  Numbering of irreducible representations: 

     1 a'          2 a"      

  Orbital symmetries:

     1 a'          2 a'          3 a'          4 a"          5 a'      
     6 a'          7 a'          8 a"          9 a'         10 a"      
    11 a'         12 a'         13 a'         14 a'         15 a"      

   Time after variat. SCF:      0.4
   Time prior to 1st pass:      0.4

 Grid_pts file          = ./methane.gridpts.0
 Record size in doubles =  12289        No. of grid_pts per rec  =   3070
 Max. records in memory =     30        Max. recs in file   = *********


           Memory utilization after 1st SCF pass: 
           Heap Space remaining (MW):       74.02            74020913
          Stack Space remaining (MW):      123.88           123883100

   convergence    iter        energy       DeltaE   RMS-Dens  Diis-err    time
 ---------------- ----- ----------------- --------- --------- ---------  ------
 d= 0,ls=0.0,diis     1    -40.4447790618 -5.40D+01  6.85D-03  3.16D-02     0.5
 d= 0,ls=0.0,diis     2    -40.4497157936 -4.94D-03  2.69D-03  6.01D-03     0.5
 d= 0,ls=0.0,diis     3    -40.4502894894 -5.74D-04  9.57D-04  1.44D-03     0.5
 d= 0,ls=0.0,diis     4    -40.4504663238 -1.77D-04  1.51D-04  2.41D-05     0.5
 d= 0,ls=0.0,diis     5    -40.4504694665 -3.14D-06  1.29D-05  1.12D-07     0.6
 d= 0,ls=0.0,diis     6    -40.4504694841 -1.76D-08  1.05D-06  5.33D-10     0.6


         Total DFT energy =      -40.450469484139
      One electron energy =      -80.088610213765
           Coulomb energy =       32.916445030573
    Exchange-Corr. energy =       -6.856758081478
 Nuclear repulsion energy =       13.578453780531

 Numeric. integr. density =       10.000000477300

     Total iterative time =      0.2s



                  Occupations of the irreducible representations
                  ----------------------------------------------

                     irrep           alpha         beta
                     --------     --------     --------
                     a'                4.0          4.0
                     a"                1.0          1.0


                       DFT Final Molecular Orbital Analysis
                       ------------------------------------

 Vector    1  Occ=2.000000D+00  E=-1.020549D+01  Symmetry=a'
              MO Center= -4.9D-02, -3.0D-02,  6.9D-19, r^2= 2.8D-02
   Bfn.  Coefficient  Atom+Function         Bfn.  Coefficient  Atom+Function  
  ----- ------------  ---------------      ----- ------------  ---------------
     1      0.993207  1 C  s                  2      0.046952  1 C  s          

 Vector    2  Occ=2.000000D+00  E=-7.161291D-01  Symmetry=a'
              MO Center=  2.1D-02, -6.7D-02, -7.3D-18, r^2= 9.8D-01
   Bfn.  Coefficient  Atom+Function         Bfn.  Coefficient  Atom+Function  
  ----- ------------  ---------------      ----- ------------  ---------------
     2      0.368251  1 C  s                  6      0.368904  1 C  s          
     1     -0.197938  1 C  s                 22      0.150660  5 H  s          
    16      0.131633  2 H  s                 18      0.131633  3 H  s          
    20      0.121510  4 H  s                 23      0.035587  5 H  s          
    21      0.034098  4 H  s                 17      0.033667  2 H  s          

 Vector    3  Occ=2.000000D+00  E=-4.150818D-01  Symmetry=a'
              MO Center= -3.6D-01, -1.7D-01, -8.2D-17, r^2= 1.2D+00
   Bfn.  Coefficient  Atom+Function         Bfn.  Coefficient  Atom+Function  
  ----- ------------  ---------------      ----- ------------  ---------------
     3      0.426435  1 C  px                20     -0.275334  4 H  s          
     7      0.215529  1 C  px                21     -0.211815  4 H  s          
    22      0.188627  5 H  s                 23      0.140005  5 H  s          
     4     -0.125148  1 C  py                 8     -0.057065  1 C  py         
     6     -0.037305  1 C  s                 16      0.037414  2 H  s          

 Vector    4  Occ=2.000000D+00  E=-4.032114D-01  Symmetry=a"
              MO Center=  1.3D-01,  2.0D-01, -1.7D-15, r^2= 1.2D+00
   Bfn.  Coefficient  Atom+Function         Bfn.  Coefficient  Atom+Function  
  ----- ------------  ---------------      ----- ------------  ---------------
     5      0.444061  1 C  pz                16      0.237550  2 H  s          
    18     -0.237550  3 H  s                  9      0.226934  1 C  pz         
    17      0.191295  2 H  s                 19     -0.191295  3 H  s          
    14      0.031278  1 C  dyz               12      0.030570  1 C  dxz        

 Vector    5  Occ=2.000000D+00  E=-3.846369D-01  Symmetry=a'
              MO Center=  9.1D-02, -8.0D-02,  2.6D-15, r^2= 1.3D+00
   Bfn.  Coefficient  Atom+Function         Bfn.  Coefficient  Atom+Function  
  ----- ------------  ---------------      ----- ------------  ---------------
     4      0.435848  1 C  py                 8      0.224584  1 C  py         
    22     -0.217256  5 H  s                 23     -0.186613  5 H  s          
    16      0.164481  2 H  s                 18      0.164481  3 H  s          
    17      0.142820  2 H  s                 19      0.142820  3 H  s          
     3      0.115602  1 C  px                20     -0.103633  4 H  s          

 Vector    6  Occ=0.000000D+00  E= 1.339131D-01  Symmetry=a'
              MO Center= -6.3D-02,  3.1D-02,  1.9D-15, r^2= 3.7D+00
   Bfn.  Coefficient  Atom+Function         Bfn.  Coefficient  Atom+Function  
  ----- ------------  ---------------      ----- ------------  ---------------
     6      2.628774  1 C  s                 21     -1.062436  4 H  s          
    17     -1.018719  2 H  s                 19     -1.018719  3 H  s          
    23     -0.867180  5 H  s                  2      0.185211  1 C  s          
     1     -0.159659  1 C  s                  8      0.070211  1 C  py         
    20     -0.040227  4 H  s                  4      0.034801  1 C  py         

 Vector    7  Occ=0.000000D+00  E= 1.843087D-01  Symmetry=a'
              MO Center= -3.5D-01,  6.6D-02, -4.8D-15, r^2= 3.0D+00
   Bfn.  Coefficient  Atom+Function         Bfn.  Coefficient  Atom+Function  
  ----- ------------  ---------------      ----- ------------  ---------------
    21      1.472825  4 H  s                  7      1.027012  1 C  px         
    17     -1.024481  2 H  s                 19     -1.024481  3 H  s          
     8      0.877666  1 C  py                23      0.540790  5 H  s          
     3      0.273436  1 C  px                 4      0.240874  1 C  py         
    20      0.107237  4 H  s                 16     -0.076111  2 H  s          

 Vector    8  Occ=0.000000D+00  E= 1.926576D-01  Symmetry=a"
              MO Center=  2.9D-01,  4.1D-01,  7.1D-16, r^2= 2.9D+00
   Bfn.  Coefficient  Atom+Function         Bfn.  Coefficient  Atom+Function  
  ----- ------------  ---------------      ----- ------------  ---------------
    17      1.555982  2 H  s                 19     -1.555982  3 H  s          
     9     -1.398176  1 C  pz                 5     -0.374621  1 C  pz         
    16      0.102088  2 H  s                 18     -0.102088  3 H  s          
    14      0.032688  1 C  dyz        

 Vector    9  Occ=0.000000D+00  E= 2.021177D-01  Symmetry=a'
              MO Center=  1.0D-01, -6.9D-01,  2.0D-15, r^2= 2.7D+00
   Bfn.  Coefficient  Atom+Function         Bfn.  Coefficient  Atom+Function  
  ----- ------------  ---------------      ----- ------------  ---------------
    23      2.118640  5 H  s                  7     -1.054748  1 C  px         
    21     -1.054062  4 H  s                  8      1.014096  1 C  py         
     6     -0.549597  1 C  s                  3     -0.253379  1 C  px         
     4      0.253991  1 C  py                17     -0.144622  2 H  s          
    19     -0.144622  3 H  s                 22      0.102991  5 H  s          

 Vector   10  Occ=0.000000D+00  E= 5.332510D-01  Symmetry=a'
              MO Center= -1.3D-01,  1.1D-01,  4.3D-16, r^2= 2.1D+00
   Bfn.  Coefficient  Atom+Function         Bfn.  Coefficient  Atom+Function  
  ----- ------------  ---------------      ----- ------------  ---------------
     8      1.269070  1 C  py                 4     -0.736305  1 C  py         
    22      0.468448  5 H  s                  7     -0.254631  1 C  px         
    16     -0.234949  2 H  s                 18     -0.234949  3 H  s          
     6     -0.145596  1 C  s                 23      0.125124  5 H  s          
    11     -0.111617  1 C  dxy                3      0.076067  1 C  px         

 Vector   11  Occ=0.000000D+00  E= 5.562120D-01  Symmetry=a"
              MO Center= -1.6D-01, -1.8D-01,  1.6D-15, r^2= 2.1D+00
   Bfn.  Coefficient  Atom+Function         Bfn.  Coefficient  Atom+Function  
  ----- ------------  ---------------      ----- ------------  ---------------
     9      1.469689  1 C  pz                 5     -0.761884  1 C  pz         
    16     -0.409227  2 H  s                 18      0.409227  3 H  s          
    17     -0.196916  2 H  s                 19      0.196916  3 H  s          
    14     -0.143779  1 C  dyz               12     -0.110498  1 C  dxz        

 Vector   12  Occ=0.000000D+00  E= 5.642557D-01  Symmetry=a'
              MO Center=  6.8D-02,  5.3D-03, -3.0D-15, r^2= 2.1D+00
   Bfn.  Coefficient  Atom+Function         Bfn.  Coefficient  Atom+Function  
  ----- ------------  ---------------      ----- ------------  ---------------
     7      1.565609  1 C  px                 3     -0.763849  1 C  px         
    20      0.522608  4 H  s                 21      0.281193  4 H  s          
    23     -0.266842  5 H  s                 16     -0.144644  2 H  s          
    18     -0.144644  3 H  s                 22     -0.139812  5 H  s          
    17     -0.125400  2 H  s                 19     -0.125400  3 H  s          

 Vector   13  Occ=0.000000D+00  E= 9.157496D-01  Symmetry=a'
              MO Center= -4.1D-01,  1.1D-03,  1.3D-14, r^2= 2.1D+00
   Bfn.  Coefficient  Atom+Function         Bfn.  Coefficient  Atom+Function  
  ----- ------------  ---------------      ----- ------------  ---------------
    21      1.398860  4 H  s                  7      0.948494  1 C  px         
    17     -0.916442  2 H  s                 19     -0.916442  3 H  s          
    20     -0.803579  4 H  s                  8      0.788156  1 C  py         
     3     -0.630620  1 C  px                 4     -0.557320  1 C  py         
    23      0.497134  5 H  s                 16      0.377027  2 H  s          

 Vector   14  Occ=0.000000D+00  E= 9.298757D-01  Symmetry=a'
              MO Center= -2.3D-01, -2.1D-02, -1.1D-13, r^2= 2.1D+00
   Bfn.  Coefficient  Atom+Function         Bfn.  Coefficient  Atom+Function  
  ----- ------------  ---------------      ----- ------------  ---------------
    23      1.273122  5 H  s                 21     -1.061261  4 H  s          
     8      0.881613  1 C  py                 7     -0.732241  1 C  px         
    20      0.713112  4 H  s                 17     -0.615931  2 H  s          
    19     -0.615931  3 H  s                  4     -0.589041  1 C  py         
    16      0.515415  2 H  s                 18      0.515415  3 H  s          

 Vector   15  Occ=0.000000D+00  E= 9.312343D-01  Symmetry=a"
              MO Center=  2.3D-01,  3.3D-01,  9.6D-14, r^2= 1.9D+00
   Bfn.  Coefficient  Atom+Function         Bfn.  Coefficient  Atom+Function  
  ----- ------------  ---------------      ----- ------------  ---------------
[...]
    23     -0.495148  5 H  s                  1     -0.488498  1 C  s          


 center of mass
 --------------
 x =  -0.02779953 y =  -0.06212733 z =   0.00000000

 moments of inertia (a.u.)
 ------------------
          11.455768259808          -0.001101464144           0.000000000000
          -0.001101464144          11.455699787280           0.000000000000
           0.000000000000           0.000000000000          11.457304384532

     Multipole analysis of the density
     ---------------------------------

     L   x y z        total         alpha         beta         nuclear
     -   - - -        -----         -----         ----         -------
     0   0 0 0     -0.000000     -5.000000     -5.000000     10.000000

     1   1 0 0      0.000036      0.138933      0.138933     -0.277830
     1   0 1 0     -0.000001      0.310624      0.310624     -0.621249
     1   0 0 1     -0.000000     -0.000000     -0.000000      0.000000

     2   2 0 0     -6.114148     -5.903004     -5.903004      5.691859
     2   1 1 0      0.000346     -0.009004     -0.009004      0.018353
     2   1 0 1      0.000000      0.000000      0.000000      0.000000
     2   0 2 0     -6.114148     -5.918475     -5.918475      5.722802
     2   0 1 1     -0.000000     -0.000000     -0.000000      0.000000
     2   0 0 2     -6.114685     -5.898650     -5.898650      5.682615

 Line search: 
     step= 1.00 grad=-4.2D-07 hess= 1.7D-07 energy=    -40.456876 mode=accept  
 new step= 1.00                   predicted energy=    -40.456876
  no constraints, skipping    0.0000000000000000     
  no constraints, skipping    0.0000000000000000     
  no constraints, skipping    0.0000000000000000     

          --------
          Step   5
          --------


                         Geometry "geometry" -> "geometry"
                         ---------------------------------

 Output coordinates in angstroms (scale by  1.889725989 to convert to a.u.)

  No.       Tag          Charge          X              Y              Z
 ---- ---------------- ---------- -------------- -------------- --------------
    1 C                    6.0000    -0.01472567    -0.03287858     0.00000000
    2 H                    1.0000     0.29747246     0.51537176     0.89199064
    3 H                    1.0000     0.29747246     0.51537176    -0.89199064
    4 H                    1.0000    -1.10204729    -0.13982611     0.00000000
    5 H                    1.0000     0.44843497    -1.02239655     0.00000000

      Atomic Mass 
      ----------- 

      C                 12.000000
      H                  1.007825


 Effective nuclear repulsion energy (a.u.)      13.4038995804

            Nuclear Dipole moment (a.u.) 
            ----------------------------
        X                 Y               Z
 ---------------- ---------------- ----------------
    -0.2778301920    -0.6212485794     0.0000000000

      Symmetry information
      --------------------

 Group name             Cs        
 Group number              2
 Group order               2
 No. of unique centers     4

      Symmetry unique atoms

     1    2    4    5


                                 NWChem DFT Module
                                 -----------------


                          Methane Optimization (DFT/PBE0)




 Summary of "ao basis" -> "ao basis" (cartesian)
 ------------------------------------------------------------------------------
       Tag                 Description            Shells   Functions and Types
 ---------------- ------------------------------  ------  ---------------------
 C                           6-31G*                  6       15   3s2p1d
 H                           6-31G*                  2        2   2s


      Symmetry analysis of basis
      --------------------------

        a'         17
        a"          6


  The DFT is already converged 

         Total DFT energy =    -40.456875738415


            General Information
            -------------------
          SCF calculation type: DFT
          Wavefunction type:  closed shell.
          No. of atoms     :     5
          No. of electrons :    10
           Alpha electrons :     5
            Beta electrons :     5
          Charge           :     0
          Spin multiplicity:     1
          Use of symmetry is: on ; symmetry adaption is: on 
          Maximum number of iterations:  50
          AO basis - number of functions:    23
                     number of shells:    14
          Convergence on energy requested:  1.00D-06
          Convergence on density requested:  1.00D-05
          Convergence on gradient requested:  5.00D-04

              XC Information
              --------------
                         PBE0 Method XC Functional
                     Hartree-Fock (Exact) Exchange  0.250          
          PerdewBurkeErnzerhof Exchange Functional  0.750          
            Perdew 1991 LDA Correlation Functional  1.000 local    
           PerdewBurkeErnz. Correlation Functional  1.000 non-local

             Grid Information
             ----------------
          Grid used for XC integration:  medium    
          Radial quadrature: Mura-Knowles        
          Angular quadrature: Lebedev. 
          Tag              B.-S. Rad. Rad. Pts. Rad. Cut. Ang. Pts.
          ---              ---------- --------- --------- ---------
          C                   0.70       49           6.0       434
          H                   0.35       45           7.0       434
          Grid pruning is: on 
          Number of quadrature shells:   184
          Spatial weights used:  Erf1

          Convergence Information
          -----------------------
          Convergence aids based upon iterative change in 
          total energy or number of iterations. 
          Levelshifting, if invoked, occurs when the 
          HOMO/LUMO gap drops below (HL_TOL):  1.00D-02
          DIIS, if invoked, will attempt to extrapolate 
          using up to (NFOCK): 10 stored Fock matrices.

                    Damping( 0%)  Levelshifting(0.5)       DIIS
                  --------------- ------------------- ---------------
          dE  on:    start            ASAP                start   
          dE off:    2 iters         50 iters            50 iters 


      Screening Tolerance Information
      -------------------------------
          Density screening/tol_rho:  1.00D-10
          AO Gaussian exp screening on grid/accAOfunc:  14
          CD Gaussian exp screening on grid/accCDfunc:  20
          XC Gaussian exp screening on grid/accXCfunc:  20
          Schwarz screening/accCoul:  1.00D-08



                            NWChem DFT Gradient Module
                            --------------------------


                          Methane Optimization (DFT/PBE0)



  charge          =   0.00
  wavefunction    = closed shell

  Using symmetry


                         DFT ENERGY GRADIENTS

    atom               coordinates                        gradient
                 x          y          z           x          y          z
   1 C      -0.027827  -0.062132   0.000000   -0.000014  -0.000008   0.000000
   2 H       0.562141   0.973911   1.685618    0.000016   0.000012  -0.000014
   3 H       0.562141   0.973911  -1.685618    0.000016   0.000012   0.000014
   4 H      -2.082567  -0.264233   0.000000   -0.000008  -0.000021   0.000000
   5 H       0.847419  -1.932049   0.000000   -0.000010   0.000005   0.000000

                 ----------------------------------------
                 |  Time  |  1-e(secs)   |  2-e(secs)   |
                 ----------------------------------------
                 |  CPU   |       0.00   |       0.02   |
                 ----------------------------------------
                 |  WALL  |       0.00   |       0.01   |
                 ----------------------------------------
  no constraints, skipping    0.0000000000000000     

  Step       Energy      Delta E   Gmax     Grms     Xrms     Xmax   Walltime
  ---- ---------------- -------- -------- -------- -------- -------- --------
@    5     -40.45687574 -2.5D-07  0.00002  0.00001  0.00042  0.00083      1.6
                                     ok       ok       ok       ok  



                                Z-matrix (autoz)
                                -------- 

 Units are Angstrom for bonds and degrees for angles

      Type          Name      I     J     K     L     M      Value     Gradient
      ----------- --------  ----- ----- ----- ----- ----- ---------- ----------
    1 Stretch                  1     2                       1.09256   -0.00000
    2 Stretch                  1     3                       1.09256   -0.00000
    3 Stretch                  1     4                       1.09257    0.00001
    4 Stretch                  1     5                       1.09255   -0.00001
    5 Bend                     2     1     3               109.45612   -0.00002
    6 Bend                     2     1     4               109.48109    0.00001
    7 Bend                     2     1     5               109.47187    0.00000
    8 Bend                     3     1     4               109.48109    0.00001
    9 Bend                     3     1     5               109.47187    0.00000
   10 Bend                     4     1     5               109.46527   -0.00001


      ----------------------
      Optimization converged
      ----------------------


  Step       Energy      Delta E   Gmax     Grms     Xrms     Xmax   Walltime
  ---- ---------------- -------- -------- -------- -------- -------- --------
@    5     -40.45687574 -2.5D-07  0.00002  0.00001  0.00042  0.00083      1.6
                                     ok       ok       ok       ok  



                                Z-matrix (autoz)
                                -------- 

 Units are Angstrom for bonds and degrees for angles

      Type          Name      I     J     K     L     M      Value     Gradient
      ----------- --------  ----- ----- ----- ----- ----- ---------- ----------
    1 Stretch                  1     2                       1.09256   -0.00000
    2 Stretch                  1     3                       1.09256   -0.00000
    3 Stretch                  1     4                       1.09257    0.00001
    4 Stretch                  1     5                       1.09255   -0.00001
    5 Bend                     2     1     3               109.45612   -0.00002
    6 Bend                     2     1     4               109.48109    0.00001
    7 Bend                     2     1     5               109.47187    0.00000
    8 Bend                     3     1     4               109.48109    0.00001
    9 Bend                     3     1     5               109.47187    0.00000
   10 Bend                     4     1     5               109.46527   -0.00001



                         Geometry "geometry" -> "geometry"
                         ---------------------------------

 Output coordinates in angstroms (scale by  1.889725989 to convert to a.u.)

  No.       Tag          Charge          X              Y              Z
 ---- ---------------- ---------- -------------- -------------- --------------
    1 C                    6.0000    -0.01472567    -0.03287858     0.00000000
    2 H                    1.0000     0.29747246     0.51537176     0.89199064
    3 H                    1.0000     0.29747246     0.51537176    -0.89199064
    4 H                    1.0000    -1.10204729    -0.13982611     0.00000000
    5 H                    1.0000     0.44843497    -1.02239655     0.00000000

      Atomic Mass 
      ----------- 

      C                 12.000000
      H                  1.007825


 Effective nuclear repulsion energy (a.u.)      13.4038995804

            Nuclear Dipole moment (a.u.) 
            ----------------------------
        X                 Y               Z
 ---------------- ---------------- ----------------
    -0.2778301920    -0.6212485794     0.0000000000

      Symmetry information
      --------------------

 Group name             Cs        
 Group number              2
 Group order               2
 No. of unique centers     4

      Symmetry unique atoms

     1    2    4    5


                Final and change from initial internal coordinates
                --------------------------------------------------



                                Z-matrix (autoz)
                                -------- 

 Units are Angstrom for bonds and degrees for angles

      Type          Name      I     J     K     L     M      Value       Change
      ----------- --------  ----- ----- ----- ----- ----- ---------- ----------
    1 Stretch                  1     2                       1.09256    0.00137
    2 Stretch                  1     3                       1.09256    0.00137
    3 Stretch                  1     4                       1.09257    0.00138
    4 Stretch                  1     5                       1.09255   -0.23933
    5 Bend                     2     1     3               109.45612   -0.01510
    6 Bend                     2     1     4               109.48109    0.00987
    7 Bend                     2     1     5               109.47187   -5.94181
    8 Bend                     3     1     4               109.48109    0.00987
    9 Bend                     3     1     5               109.47187   -5.94181
   10 Bend                     4     1     5               109.46527   12.74390

 ==============================================================================
                                internuclear distances
 ------------------------------------------------------------------------------
       center one      |      center two      | atomic units |  angstroms
 ------------------------------------------------------------------------------
    2 H                |   1 C                |     2.06464  |     1.09256
    3 H                |   1 C                |     2.06464  |     1.09256
    4 H                |   1 C                |     2.06466  |     1.09257
    5 H                |   1 C                |     2.06462  |     1.09255
 ------------------------------------------------------------------------------
                         number of included internuclear distances:          4
 ==============================================================================



 ==============================================================================
                                 internuclear angles
 ------------------------------------------------------------------------------
        center 1       |       center 2       |       center 3       |  degrees
 ------------------------------------------------------------------------------
    2 H                |   1 C                |   3 H                |   109.46
    2 H                |   1 C                |   4 H                |   109.48
    2 H                |   1 C                |   5 H                |   109.47
    3 H                |   1 C                |   4 H                |   109.48
    3 H                |   1 C                |   5 H                |   109.47
    4 H                |   1 C                |   5 H                |   109.47
 ------------------------------------------------------------------------------
                            number of included internuclear angles:          6
 ==============================================================================




 Task  times  cpu:        3.1s     wall:        1.6s


                                NWChem Input Module
                                -------------------


 Summary of allocated global arrays
-----------------------------------
  No active global arrays


MA_summarize_allocated_blocks: starting scan ...
MA_summarize_allocated_blocks: scan completed: 0 heap blocks, 0 stack blocks
MA usage statistics:

	allocation statistics:
					      heap	     stack
					      ----	     -----
	current number of blocks	         0	         0
	maximum number of blocks	        26	        62
	current total bytes		         0	         0
	maximum total bytes		 398901536	  10291464
	maximum total K-bytes		    398902	     10292
	maximum total M-bytes		       399	        11


                                     CITATION
                                     --------
                Please cite the following reference when publishing
                           results obtained with NWChem:

          E. Apra, E. J. Bylaska, W. A. de Jong, N. Govind, K. Kowalski,
       T. P. Straatsma, M. Valiev, H. J. J. van Dam, Y. Alexeev, J. Anchell,
       V. Anisimov, F. W. Aquino, R. Atta-Fynn, J. Autschbach, N. P. Bauman,
     J. C. Becca, D. E. Bernholdt, K. Bhaskaran-Nair, S. Bogatko, P. Borowski,
         J. Boschen, J. Brabec, A. Bruner, E. Cauet, Y. Chen, G. N. Chuev,
      C. J. Cramer, J. Daily, M. J. O. Deegan, T. H. Dunning Jr., M. Dupuis,
   K. G. Dyall, G. I. Fann, S. A. Fischer, A. Fonari, H. Fruchtl, L. Gagliardi,
      J. Garza, N. Gawande, S. Ghosh, K. Glaesemann, A. W. Gotz, J. Hammond,
       V. Helms, E. D. Hermes, K. Hirao, S. Hirata, M. Jacquelin, L. Jensen,
   B. G. Johnson, H. Jonsson, R. A. Kendall, M. Klemm, R. Kobayashi, V. Konkov,
      S. Krishnamoorthy, M. Krishnan, Z. Lin, R. D. Lins, R. J. Littlefield,
      A. J. Logsdail, K. Lopata, W. Ma, A. V. Marenich, J. Martin del Campo,
   D. Mejia-Rodriguez, J. E. Moore, J. M. Mullin, T. Nakajima, D. R. Nascimento,
    J. A. Nichols, P. J. Nichols, J. Nieplocha, A. Otero-de-la-Roza, B. Palmer,
    A. Panyala, T. Pirojsirikul, B. Peng, R. Peverati, J. Pittner, L. Pollack,
   R. M. Richard, P. Sadayappan, G. C. Schatz, W. A. Shelton, D. W. Silverstein,
   D. M. A. Smith, T. A. Soares, D. Song, M. Swart, H. L. Taylor, G. S. Thomas,
            V. Tipparaju, D. G. Truhlar, K. Tsemekhman, T. Van Voorhis,
      A. Vazquez-Mayagoitia, P. Verma, O. Villa, A. Vishnu, K. D. Vogiatzis,
        D. Wang, J. H. Weare, M. J. Williamson, T. L. Windus, K. Wolinski,
        A. T. Wong, Q. Wu, C. Yang, Q. Yu, M. Zacharias, Z. Zhang, Y. Zhao,
                                and R. J. Harrison
                        "NWChem: Past, present, and future
                         J. Chem. Phys. 152, 184102 (2020)
                               doi:10.1063/5.0004997

                                      AUTHORS
                                      -------
  E. Apra, E. J. Bylaska, N. Govind, K. Kowalski, M. Valiev, D. Mejia-Rodriguez,
       A. Kunitsa, N. P. Bauman, A. Panyala, W. A. de Jong, T. P. Straatsma,
   H. J. J. van Dam, D. Wang, T. L. Windus, J. Hammond, J. Autschbach, A. Woods,
    K. Bhaskaran-Nair, J. Brabec, K. Lopata, S. A. Fischer, S. Krishnamoorthy,
     M. Jacquelin, W. Ma, M. Klemm, O. Villa, Y. Chen, V. Anisimov, F. Aquino,
     S. Hirata, M. T. Hackler, E. Hermes, L. Jensen, J. E. Moore, J. C. Becca,
      V. Konjkov, T. Risthaus, M. Malagoli, A. Marenich, A. Otero-de-la-Roza,
        J. Mullin, P. Nichols, R. Peverati, J. Pittner, Y. Zhao, P.-D. Fan,
        A. Fonari, M. J. Williamson, R. J. Harrison, J. R. Rehr, M. Dupuis,
     D. Silverstein, D. M. A. Smith, J. Nieplocha, V. Tipparaju, M. Krishnan,
     B. E. Van Kuiken, A. Vazquez-Mayagoitia, M. Swart, Q. Wu, T. Van Voorhis,
     A. A. Auer, M. Nooijen, L. D. Crosby, E. Brown, G. Cisneros, G. I. Fann,
   H. Fruchtl, J. Garza, K. Hirao, R. A. Kendall, J. A. Nichols, K. Tsemekhman,
    K. Wolinski, J. Anchell, D. E. Bernholdt, P. Borowski, T. Clark, D. Clerc,
   H. Dachsel, M. J. O. Deegan, K. Dyall, D. Elwood, E. Glendening, M. Gutowski,
   A. C. Hess, J. Jaffe, B. G. Johnson, J. Ju, R. Kobayashi, R. Kutteh, Z. Lin,
   R. Littlefield, X. Long, B. Meng, T. Nakajima, S. Niu, L. Pollack, M. Rosing,
   K. Glaesemann, G. Sandrone, M. Stave, H. Taylor, G. Thomas, J. H. van Lenthe,
                               A. T. Wong, Z. Zhang.

 Total times  cpu:        3.1s     wall:        1.6s
